
     Program PWSCF v.6.4.1 starts on  1Nov2020 at 10: 8:21 

     This program is part of the open-source Quantum ESPRESSO suite
     for quantum simulation of materials; please cite
         "P. Giannozzi et al., J. Phys.:Condens. Matter 21 395502 (2009);
         "P. Giannozzi et al., J. Phys.:Condens. Matter 29 465901 (2017);
          URL http://www.quantum-espresso.org", 
     in publications or presentations arising from this work. More details at
     http://www.quantum-espresso.org/quote

     Parallel version (MPI), running on     8 processors

     MPI processes distributed on     1 nodes
     R & G space division:  proc/nbgrp/npool/nimage =       8
     Waiting for input...
     Reading input from standard input

     Current dimensions of program PWSCF are:
     Max number of different atomic species (ntypx) = 10
     Max number of k-points (npk) =  40000
     Max angular momentum in pseudopotentials (lmaxx) =  3

     IMPORTANT: XC functional enforced from input :
     Exchange-correlation      = VDW-DF ( 1  4  4  0 1 0)
     Any further DFT definition will be discarded
     Please, verify this is what you really want

               file C.pbe-rrkjus.UPF: wavefunction(s)  2S 2P renormalized

     Subspace diagonalization in iterative solution of the eigenvalue problem:
     a serial algorithm will be used

     Message from routine setup:
     DEPRECATED: symmetry with ibrav=0, use correct ibrav instead

     Parallelization info
     --------------------
     sticks:   dense  smooth     PW     G-vecs:    dense   smooth      PW
     Min         237      95     27                42017    10635    1719
     Max         238      96     29                42026    10652    1729
     Sum        1897     765    225               336177    85155   13795



     bravais-lattice index     =            0
     lattice parameter (alat)  =       4.6487  a.u.
     unit-cell volume          =    3480.1058 (a.u.)^3
     number of atoms/cell      =            9
     number of atomic types    =            2
     number of electrons       =        33.00
     number of Kohn-Sham states=           21
     kinetic-energy cutoff     =      32.0000  Ry
     charge density cutoff     =     320.0000  Ry
     convergence threshold     =      1.0E-06
     mixing beta               =       0.5000
     number of iterations used =            8  plain     mixing
     Exchange-correlation      = VDW-DF ( 1  4  4  0 1 0)
     nstep                     =          200


     celldm(1)=   4.648726  celldm(2)=   0.000000  celldm(3)=   0.000000
     celldm(4)=   0.000000  celldm(5)=   0.000000  celldm(6)=   0.000000

     crystal axes: (cart. coord. in units of alat)
               a(1) = (   2.000000   0.000000   0.000000 )  
               a(2) = (   0.000000   1.732051   0.000000 )  
               a(3) = (   0.000000   0.000000  10.000000 )  

     reciprocal axes: (cart. coord. in units 2 pi/alat)
               b(1) = (  0.500000  0.000000  0.000000 )  
               b(2) = (  0.000000  0.577350  0.000000 )  
               b(3) = (  0.000000  0.000000  0.100000 )  


     PseudoPot. # 1 for C  read from file:
     ../pseudopotentials/C.pbe-rrkjus.UPF
     MD5 check sum: 00fb224312de0c5b6853bd333518df6f
     Pseudo is Ultrasoft, Zval =  4.0
     Generated by new atomic code, or converted to UPF format
     Using radial grid of  627 points,  4 beta functions with: 
                l(1) =   0
                l(2) =   0
                l(3) =   1
                l(4) =   1
     Q(r) pseudized with 0 coefficients 


     PseudoPot. # 2 for H  read from file:
     ../pseudopotentials/H.pbe-rrkjus_psl.1.0.0.UPF
     MD5 check sum: 3f4114867bd07edc7f1424d066fc1888
     Pseudo is Ultrasoft, Zval =  1.0
     Generated using "atomic" code by A. Dal Corso v.6.3MaX
     Using radial grid of  929 points,  2 beta functions with: 
                l(1) =   0
                l(2) =   0
     Q(r) pseudized with 0 coefficients 


     vdW kernel table read from file vdW_kernel_table
     MD5 check sum: 48e77a2e26edf626eeb0eaa751ad5cac

     atomic species   valence    mass     pseudopotential
        C              4.00    12.01070     C ( 1.00)
        H              1.00     1.00790     H ( 1.00)

      4 Sym. Ops. (no inversion) found ( 3 have fractional translation)



   Cartesian axes

     site n.     atom                  positions (alat units)
         1           C   tau(   1) = (   0.5000000   0.0000000   0.0000000  )
         2           C   tau(   2) = (   0.0000000   0.2886752   0.0000000  )
         3           C   tau(   3) = (   0.0000000   0.8660253   0.0000000  )
         4           C   tau(   4) = (   0.5000000   1.1547005   0.0000000  )
         5           C   tau(   5) = (   1.5000001   0.0000000   0.0000000  )
         6           C   tau(   6) = (   1.0000001   0.2886752   0.0000000  )
         7           C   tau(   7) = (   1.0000001   0.8660253   0.0000000  )
         8           C   tau(   8) = (   1.5000001   1.1547005   0.0000000  )
         9           H   tau(   9) = (   0.5000000   0.5773505   1.2195123  )

     number of k points=     9  gaussian smearing, width (Ry)=  0.0200
                       cart. coord. in units 2pi/alat
        k(    1) = (   0.0000000   0.0000000   0.0000000), wk =   0.1250000
        k(    2) = (   0.0000000   0.1443376   0.0000000), wk =   0.2500000
        k(    3) = (   0.0000000  -0.2886751   0.0000000), wk =   0.1250000
        k(    4) = (   0.1250000   0.0000000   0.0000000), wk =   0.2500000
        k(    5) = (   0.1250000   0.1443376   0.0000000), wk =   0.5000000
        k(    6) = (   0.1250000  -0.2886751   0.0000000), wk =   0.2500000
        k(    7) = (  -0.2500000   0.0000000   0.0000000), wk =   0.1250000
        k(    8) = (  -0.2500000   0.1443376   0.0000000), wk =   0.2500000
        k(    9) = (  -0.2500000  -0.2886751   0.0000000), wk =   0.1250000

     Dense  grid:   336177 G-vectors     FFT dimensions: (  54,  45, 270)

     Smooth grid:    85155 G-vectors     FFT dimensions: (  36,  30, 180)

     Estimated max dynamical RAM per process >      74.32 MB

     Estimated total dynamical RAM >     594.57 MB

     Initial potential from superposition of free atoms

     starting charge   32.99957, renormalised to   33.00000

     negative rho (up, down):  7.451E-05 0.000E+00


     %%%%%%%%%%%%%%%%%%%%%%%%%%%%%%%%%%%%%%%%%%%%%%%%%%%%%%%%%%%%%%%%%%%%%%%%
     %                                                                      %
     % You are using vdW-DF, which was implemented by the Thonhauser group. %
     % Please cite the following two papers that made this development      %
     % possible and the two reviews that describe the various versions:     %
     %                                                                      %
     %   T. Thonhauser et al., PRL 115, 136402 (2015).                      %
     %   T. Thonhauser et al., PRB 76, 125112 (2007).                       %
     %   K. Berland et al., Rep. Prog. Phys. 78, 066501 (2015).             %
     %   D.C. Langreth et al., J. Phys.: Condens. Matter 21, 084203 (2009). %
     %                                                                      %
     %                                                                      %
     % If you are calculating the stress with vdW-DF, please also cite:     %
     %                                                                      %
     %   R. Sabatini et al., J. Phys.: Condens. Matter 24, 424209 (2012).   %
     %                                                                      %
     %%%%%%%%%%%%%%%%%%%%%%%%%%%%%%%%%%%%%%%%%%%%%%%%%%%%%%%%%%%%%%%%%%%%%%%%


     Starting wfcs are   33 randomized atomic wfcs

     total cpu time spent up to now is        2.1 secs

     Self-consistent Calculation

     iteration #  1     ecut=    32.00 Ry     beta= 0.50
     Davidson diagonalization with overlap
     ethr =  1.00E-02,  avg # of iterations =  2.0

     negative rho (up, down):  6.153E-05 0.000E+00

     total cpu time spent up to now is        3.7 secs

     total energy              =     -92.30889797 Ry
     Harris-Foulkes estimate   =     -93.11811147 Ry
     estimated scf accuracy    <       1.43381882 Ry

     iteration #  2     ecut=    32.00 Ry     beta= 0.50
     Davidson diagonalization with overlap
     ethr =  4.34E-03,  avg # of iterations =  5.6

     negative rho (up, down):  8.362E-04 0.000E+00

     total cpu time spent up to now is        5.2 secs

     total energy              =     -92.62008222 Ry
     Harris-Foulkes estimate   =     -93.23429193 Ry
     estimated scf accuracy    <       1.76600277 Ry

     iteration #  3     ecut=    32.00 Ry     beta= 0.50
     Davidson diagonalization with overlap
     ethr =  4.34E-03,  avg # of iterations =  3.1

     negative rho (up, down):  3.679E-04 0.000E+00

     total cpu time spent up to now is        6.6 secs

     total energy              =     -92.71456170 Ry
     Harris-Foulkes estimate   =     -92.73342642 Ry
     estimated scf accuracy    <       0.05306450 Ry

     iteration #  4     ecut=    32.00 Ry     beta= 0.50
     Davidson diagonalization with overlap
     ethr =  1.61E-04,  avg # of iterations =  7.1

     negative rho (up, down):  8.772E-05 0.000E+00

     total cpu time spent up to now is        8.2 secs

     total energy              =     -92.71947285 Ry
     Harris-Foulkes estimate   =     -92.72810785 Ry
     estimated scf accuracy    <       0.03002251 Ry

     iteration #  5     ecut=    32.00 Ry     beta= 0.50
     Davidson diagonalization with overlap
     ethr =  9.10E-05,  avg # of iterations =  2.4

     negative rho (up, down):  1.278E-04 0.000E+00

     total cpu time spent up to now is        9.6 secs

     total energy              =     -92.72146205 Ry
     Harris-Foulkes estimate   =     -92.72391882 Ry
     estimated scf accuracy    <       0.00671824 Ry

     iteration #  6     ecut=    32.00 Ry     beta= 0.50
     Davidson diagonalization with overlap
     ethr =  2.04E-05,  avg # of iterations =  3.3

     negative rho (up, down):  8.007E-05 0.000E+00

     total cpu time spent up to now is       11.0 secs

     total energy              =     -92.72248408 Ry
     Harris-Foulkes estimate   =     -92.72567960 Ry
     estimated scf accuracy    <       0.01700010 Ry

     iteration #  7     ecut=    32.00 Ry     beta= 0.50
     Davidson diagonalization with overlap
     ethr =  2.04E-05,  avg # of iterations =  3.1

     negative rho (up, down):  6.784E-05 0.000E+00

     total cpu time spent up to now is       12.3 secs

     total energy              =     -92.72364237 Ry
     Harris-Foulkes estimate   =     -92.72365650 Ry
     estimated scf accuracy    <       0.00007615 Ry

     iteration #  8     ecut=    32.00 Ry     beta= 0.50
     Davidson diagonalization with overlap
     ethr =  2.31E-07,  avg # of iterations =  3.2

     negative rho (up, down):  6.048E-05 0.000E+00

     total cpu time spent up to now is       13.7 secs

     total energy              =     -92.72365325 Ry
     Harris-Foulkes estimate   =     -92.72365439 Ry
     estimated scf accuracy    <       0.00000646 Ry

     iteration #  9     ecut=    32.00 Ry     beta= 0.50
     Davidson diagonalization with overlap
     ethr =  1.96E-08,  avg # of iterations =  2.2

     negative rho (up, down):  5.827E-05 0.000E+00

     total cpu time spent up to now is       15.1 secs

     End of self-consistent calculation

          k = 0.0000 0.0000 0.0000 ( 10637 PWs)   bands (ev):

   -23.1353 -18.8905 -18.8902 -17.9567 -16.8774 -14.2424 -14.2420 -12.6322
   -12.6317 -11.1494 -10.1875  -6.8715  -6.8652  -6.2834  -6.2719  -5.9061
    -4.4105  -1.8141  -0.7251  -0.7238  -0.4879

          k = 0.0000 0.1443 0.0000 ( 10634 PWs)   bands (ev):

   -22.7692 -19.9102 -18.5697 -18.5694 -15.6801 -15.6796 -14.3937 -11.1650
   -11.1646 -10.7100  -9.8291  -8.2169  -7.5502  -7.4486  -6.1108  -6.1028
    -4.2748  -1.2841  -1.2790   0.0032   0.2718

          k = 0.0000-0.2887 0.0000 ( 10658 PWs)   bands (ev):

   -21.6816 -21.6802 -17.9635 -17.9625 -16.8688 -16.8677 -11.1644 -11.1636
   -10.1904 -10.1898  -9.4267  -9.4188  -8.8348  -8.8348  -5.9084  -5.9056
    -4.1411  -1.8190  -1.7990   1.3430   1.5169

          k = 0.1250 0.0000 0.0000 ( 10647 PWs)   bands (ev):

   -22.8606 -20.7003 -17.7213 -16.8377 -16.6543 -15.8509 -14.0201 -12.2416
   -11.2573 -10.8195 -10.7940  -8.2837  -7.8632  -7.4433  -5.5688  -4.3498
    -4.1595  -2.9287  -1.9329  -0.1229   1.7350

          k = 0.1250 0.1443 0.0000 ( 10605 PWs)   bands (ev):

   -22.4957 -20.3470 -19.6523 -17.7347 -16.0636 -14.2435 -13.5666 -12.2855
   -10.8753 -10.3835  -9.9210  -8.9753  -8.0776  -7.9066  -7.1409  -5.3156
    -4.2135  -1.9705   0.0895   0.3695   1.0463

          k = 0.1250-0.2887 0.0000 ( 10650 PWs)   bands (ev):

   -21.4125 -21.4112 -19.3124 -19.3112 -15.1095 -15.1086 -11.2699 -11.2691
   -10.2771 -10.2766  -9.7401  -9.7401  -9.1099  -9.1021  -6.8394  -6.8345
    -4.0751  -0.5298  -0.5217   1.7205   1.8829

          k =-0.2500 0.0000 0.0000 ( 10652 PWs)   bands (ev):

   -22.0445 -22.0397 -17.0192 -17.0149 -16.1297 -16.1262 -13.4012 -13.4000
    -9.9862  -9.9843  -9.8459  -9.8445  -8.9182  -8.9165  -4.5697  -4.5623
    -4.2729  -2.5908  -2.5805   0.8478   1.0268

          k =-0.2500 0.1443 0.0000 ( 10610 PWs)   bands (ev):

   -21.6834 -21.6786 -18.8919 -18.8874 -14.2491 -14.2477 -12.6268 -12.6261
   -11.1612 -11.1599  -9.4235  -9.4222  -8.8389  -8.8372  -6.2775  -6.2766
    -4.1448  -0.7280  -0.7227   1.3479   1.5136

          k =-0.2500-0.2887 0.0000 ( 10612 PWs)   bands (ev):

   -20.6147 -20.6130 -20.6096 -20.6088 -12.7318 -12.7308 -12.7306 -12.7300
   -10.4059 -10.4031 -10.4030 -10.4010  -8.1990  -8.1905  -8.1850  -8.1788
    -4.0202   1.6552   1.6577   1.6581   1.6653

     the Fermi energy is    -4.1734 ev

!    total energy              =     -92.72365414 Ry
     Harris-Foulkes estimate   =     -92.72365422 Ry
     estimated scf accuracy    <       0.00000005 Ry

     The total energy is the sum of the following terms:

     one-electron contribution =   -1179.17563071 Ry
     hartree contribution      =     593.27054470 Ry
     xc contribution           =     -29.30042645 Ry
     ewald contribution        =     522.49314444 Ry
     smearing contrib. (-TS)   =      -0.01128613 Ry

     convergence has been achieved in   9 iterations

     Forces acting on atoms (cartesian axes, Ry/au):

     atom    1 type  1   force =     0.00000000    0.00509300   -0.00045094
     atom    2 type  1   force =    -0.00006030   -0.00598960    0.00014950
     atom    3 type  1   force =    -0.00006030    0.00598960    0.00014950
     atom    4 type  1   force =     0.00000000   -0.00509300   -0.00045094
     atom    5 type  1   force =     0.00000000    0.00629647    0.00019733
     atom    6 type  1   force =     0.00006030   -0.00598960    0.00014950
     atom    7 type  1   force =     0.00006030    0.00598960    0.00014950
     atom    8 type  1   force =     0.00000000   -0.00629647    0.00019733
     atom    9 type  2   force =     0.00000000    0.00000000   -0.00009078

     Total force =     0.016591     Total SCF correction =     0.000550

     BFGS Geometry Optimization

     number of scf cycles    =   1
     number of bfgs steps    =   0

     energy   new            =     -92.7236541388 Ry

     new trust radius        =       0.0062995645 bohr
     new conv_thr            =       0.0000010000 Ry


ATOMIC_POSITIONS (angstrom)
C        1.230000000   0.002695100  -0.000238626
C       -0.000031908   0.706971439   0.000079112
C       -0.000031908   2.133591561   0.000079112
C        1.230000000   2.837867900  -0.000238626
C        3.690000000   0.003331950   0.000104423
C        2.460031908   0.706971439   0.000079112
C        2.460031908   2.133591561   0.000079112
C        3.690000000   2.837231050   0.000104423
H        1.230000000   1.420282000   2.999951960



     Writing output data file simple_example.save/
     NEW-OLD atomic charge density approx. for the potential

     negative rho (up, down):  5.828E-05 0.000E+00

     total cpu time spent up to now is       16.9 secs

     Self-consistent Calculation

     iteration #  1     ecut=    32.00 Ry     beta= 0.50
     Davidson diagonalization with overlap
     ethr =  1.00E-06,  avg # of iterations =  3.1

     negative rho (up, down):  5.824E-05 0.000E+00

     total cpu time spent up to now is       18.6 secs

     total energy              =     -92.72350022 Ry
     Harris-Foulkes estimate   =     -92.72366473 Ry
     estimated scf accuracy    <       0.00026914 Ry

     iteration #  2     ecut=    32.00 Ry     beta= 0.50
     Davidson diagonalization with overlap
     ethr =  8.16E-07,  avg # of iterations =  3.4

     negative rho (up, down):  8.001E-05 0.000E+00

     total cpu time spent up to now is       20.0 secs

     total energy              =     -92.72331647 Ry
     Harris-Foulkes estimate   =     -92.72395708 Ry
     estimated scf accuracy    <       0.00387913 Ry

     iteration #  3     ecut=    32.00 Ry     beta= 0.50
     Davidson diagonalization with overlap
     ethr =  8.16E-07,  avg # of iterations =  3.6

     negative rho (up, down):  6.229E-05 0.000E+00

     total cpu time spent up to now is       21.5 secs

     total energy              =     -92.72362274 Ry
     Harris-Foulkes estimate   =     -92.72362490 Ry
     estimated scf accuracy    <       0.00000949 Ry

     iteration #  4     ecut=    32.00 Ry     beta= 0.50
     Davidson diagonalization with overlap
     ethr =  2.87E-08,  avg # of iterations =  2.0

     negative rho (up, down):  5.823E-05 0.000E+00

     total cpu time spent up to now is       22.9 secs

     End of self-consistent calculation

          k = 0.0000 0.0000 0.0000 ( 10637 PWs)   bands (ev):

   -23.1468 -18.9034 -18.9022 -17.9930 -16.8344 -14.2975 -14.2973 -12.5965
   -12.5948 -11.1601 -10.2436  -6.9722  -6.7878  -6.2774  -6.2646  -5.9616
    -4.3977  -1.7521  -0.7733  -0.7733  -0.4963

          k = 0.0000 0.1443 0.0000 ( 10634 PWs)   bands (ev):

   -22.7805 -19.9209 -18.5809 -18.5794 -15.7117 -15.7112 -14.3721 -11.1534
   -11.1514 -10.7217  -9.8886  -8.1539  -7.6418  -7.4768  -6.1030  -6.0934
    -4.2621  -1.3316  -1.3251  -0.0053   0.3041

          k = 0.0000-0.2887 0.0000 ( 10658 PWs)   bands (ev):

   -21.6931 -21.6898 -17.9643 -17.9609 -16.9085 -16.9060 -11.1297 -11.1268
   -10.1807 -10.1782  -9.4416  -9.4353  -8.9065  -8.9050  -5.8979  -5.8934
    -4.1283  -1.8667  -1.8448   1.3367   1.5076

          k = 0.1250 0.0000 0.0000 ( 10647 PWs)   bands (ev):

   -22.8724 -20.7134 -17.7588 -16.8358 -16.6096 -15.8977 -14.0090 -12.3080
   -11.3096 -10.8295 -10.7446  -8.2864  -7.9604  -7.3663  -5.6240  -4.3367
    -4.1360  -2.9809  -1.8737  -0.1312   1.7403

          k = 0.1250 0.1443 0.0000 ( 10605 PWs)   bands (ev):

   -22.5072 -20.3598 -19.6633 -17.7407 -16.0942 -14.2206 -13.6000 -12.2812
   -10.9311 -10.3944  -9.9036  -8.9885  -8.0879  -7.9091  -7.1674  -5.3133
    -4.2005  -2.0019   0.1175   0.3611   1.0106

          k = 0.1250-0.2887 0.0000 ( 10650 PWs)   bands (ev):

   -21.4243 -21.4210 -19.3247 -19.3215 -15.1372 -15.1345 -11.2389 -11.2358
   -10.2690 -10.2665  -9.8026  -9.8011  -9.1238  -9.1176  -6.8403  -6.8371
    -4.0618  -0.5607  -0.5509   1.7141   1.8739

          k =-0.2500 0.0000 0.0000 ( 10652 PWs)   bands (ev):

   -22.0570 -22.0520 -17.0612 -17.0548 -16.0814 -16.0785 -13.4465 -13.4454
   -10.0695 -10.0622  -9.8535  -9.8521  -8.8563  -8.8523  -4.6262  -4.6143
    -4.2598  -2.5415  -2.5377   0.8418   1.0188

          k =-0.2500 0.1443 0.0000 ( 10610 PWs)   bands (ev):

   -21.6956 -21.6907 -18.9034 -18.8990 -14.2404 -14.2369 -12.6620 -12.6612
   -11.2002 -11.1944  -9.4318  -9.4305  -8.8210  -8.8172  -6.2970  -6.2967
    -4.1316  -0.7183  -0.7158   1.3418   1.5056

          k =-0.2500-0.2887 0.0000 ( 10612 PWs)   bands (ev):

   -20.6256 -20.6250 -20.6235 -20.6177 -12.7542 -12.7494 -12.7470 -12.7464
   -10.4082 -10.4071 -10.4066 -10.4044  -8.2075  -8.2010  -8.1967  -8.1918
    -4.0066   1.6455   1.6463   1.6512   1.6585

     the Fermi energy is    -4.1598 ev

!    total energy              =     -92.72362421 Ry
     Harris-Foulkes estimate   =     -92.72362412 Ry
     estimated scf accuracy    <       0.00000017 Ry

     The total energy is the sum of the following terms:

     one-electron contribution =   -1179.15131410 Ry
     hartree contribution      =     593.24461006 Ry
     xc contribution           =     -29.30024725 Ry
     ewald contribution        =     522.49450307 Ry
     smearing contrib. (-TS)   =      -0.01117598 Ry

     convergence has been achieved in   4 iterations

     Forces acting on atoms (cartesian axes, Ry/au):

     atom    1 type  1   force =     0.00000000   -0.00678150   -0.00033943
     atom    2 type  1   force =     0.00016173    0.00713282    0.00009417
     atom    3 type  1   force =     0.00016173   -0.00713282    0.00009417
     atom    4 type  1   force =     0.00000000    0.00678150   -0.00033943
     atom    5 type  1   force =     0.00000000   -0.00749757    0.00020266
     atom    6 type  1   force =    -0.00016173    0.00713282    0.00009417
     atom    7 type  1   force =    -0.00016173   -0.00713282    0.00009417
     atom    8 type  1   force =     0.00000000    0.00749757    0.00020266
     atom    9 type  2   force =     0.00000000    0.00000000   -0.00010312

     Total force =     0.020208     Total SCF correction =     0.000939

     number of scf cycles    =   2
     number of bfgs steps    =   1

     energy   old            =     -92.7236541388 Ry
     energy   new            =     -92.7236242134 Ry

     CASE: energy  _new > energy  _old

     new trust radius        =       0.0028409324 bohr
     new conv_thr            =       0.0000010000 Ry


ATOMIC_POSITIONS (angstrom)
C        1.230000000   0.001215417  -0.000107614
C       -0.000014389   0.708711614   0.000035677
C       -0.000014389   2.131851386   0.000035677
C        1.230000000   2.839347583  -0.000107614
C        3.690000000   0.001502619   0.000047092
C        2.460014389   0.708711614   0.000035677
C        2.460014389   2.131851386   0.000035677
C        3.690000000   2.839060381   0.000047092
H        1.230000000   1.420282000   2.999978335



     Writing output data file simple_example.save/
     NEW-OLD atomic charge density approx. for the potential

     negative rho (up, down):  5.825E-05 0.000E+00

     total cpu time spent up to now is       24.7 secs

     Self-consistent Calculation

     iteration #  1     ecut=    32.00 Ry     beta= 0.50
     Davidson diagonalization with overlap
     ethr =  1.00E-06,  avg # of iterations =  2.7

     negative rho (up, down):  5.826E-05 0.000E+00

     total cpu time spent up to now is       26.3 secs

     total energy              =     -92.72367257 Ry
     Harris-Foulkes estimate   =     -92.72372791 Ry
     estimated scf accuracy    <       0.00008895 Ry

     iteration #  2     ecut=    32.00 Ry     beta= 0.50
     Davidson diagonalization with overlap
     ethr =  2.70E-07,  avg # of iterations =  3.1

     negative rho (up, down):  6.733E-05 0.000E+00

     total cpu time spent up to now is       27.7 secs

     total energy              =     -92.72359847 Ry
     Harris-Foulkes estimate   =     -92.72383926 Ry
     estimated scf accuracy    <       0.00156274 Ry

     iteration #  3     ecut=    32.00 Ry     beta= 0.50
     Davidson diagonalization with overlap
     ethr =  2.70E-07,  avg # of iterations =  2.8

     negative rho (up, down):  5.995E-05 0.000E+00

     total cpu time spent up to now is       29.1 secs

     total energy              =     -92.72371598 Ry
     Harris-Foulkes estimate   =     -92.72371681 Ry
     estimated scf accuracy    <       0.00000290 Ry

     iteration #  4     ecut=    32.00 Ry     beta= 0.50
     Davidson diagonalization with overlap
     ethr =  8.78E-09,  avg # of iterations =  2.0

     negative rho (up, down):  5.825E-05 0.000E+00

     total cpu time spent up to now is       30.6 secs

     End of self-consistent calculation

          k = 0.0000 0.0000 0.0000 ( 10637 PWs)   bands (ev):

   -23.1399 -18.8956 -18.8950 -17.9727 -16.8570 -14.2669 -14.2666 -12.6153
   -12.6144 -11.1536 -10.2124  -6.9132  -6.8330  -6.2799  -6.2680  -5.9306
    -4.4046  -1.7854  -0.7463  -0.7457  -0.4908

          k = 0.0000 0.1443 0.0000 ( 10634 PWs)   bands (ev):

   -22.7737 -19.9144 -18.5740 -18.5732 -15.6938 -15.6933 -14.3833 -11.1592
   -11.1582 -10.7147  -9.8555  -8.1878  -7.5912  -7.4607  -6.1065  -6.0980
    -4.2689  -1.3051  -1.2992   0.0002   0.2869

          k = 0.0000-0.2887 0.0000 ( 10658 PWs)   bands (ev):

   -21.6861 -21.6840 -17.9630 -17.9611 -16.8862 -16.8845 -11.1480 -11.1463
   -10.1854 -10.1841  -9.4328  -9.4256  -8.8667  -8.8661  -5.9029  -5.8995
    -4.1352  -1.8400  -1.8191   1.3410   1.5133

          k = 0.1250 0.0000 0.0000 ( 10647 PWs)   bands (ev):

   -22.8653 -20.7056 -17.7378 -16.8360 -16.6333 -15.8716 -14.0146 -12.2712
   -11.2805 -10.8234 -10.7709  -8.2843  -7.9068  -7.4078  -5.5932  -4.3438
    -4.1482  -2.9518  -1.9055  -0.1258   1.7376

          k = 0.1250 0.1443 0.0000 ( 10605 PWs)   bands (ev):

   -22.5003 -20.3522 -19.6566 -17.7367 -16.0769 -14.2325 -13.5810 -12.2831
   -10.9001 -10.3877  -9.9127  -8.9793  -8.0832  -7.9071  -7.1522  -5.3139
    -4.2076  -1.9842   0.1027   0.3665   1.0307

          k = 0.1250-0.2887 0.0000 ( 10650 PWs)   bands (ev):

   -21.4172 -21.4151 -19.3172 -19.3153 -15.1214 -15.1197 -11.2551 -11.2534
   -10.2729 -10.2716  -9.7680  -9.7673  -9.1156  -9.1084  -6.8392  -6.8350
    -4.0690  -0.5433  -0.5343   1.7184   1.8795

          k =-0.2500 0.0000 0.0000 ( 10652 PWs)   bands (ev):

   -22.0497 -22.0444 -17.0380 -17.0323 -16.1058 -16.1049 -13.4212 -13.4199
   -10.0236 -10.0190  -9.8485  -9.8474  -8.8885  -8.8878  -4.5949  -4.5851
    -4.2669  -2.5680  -2.5604   0.8458   1.0238

          k =-0.2500 0.1443 0.0000 ( 10610 PWs)   bands (ev):

   -21.6885 -21.6832 -18.8966 -18.8918 -14.2436 -14.2429 -12.6423 -12.6416
   -11.1781 -11.1745  -9.4265  -9.4255  -8.8295  -8.8289  -6.2853  -6.2853
    -4.1388  -0.7232  -0.7190   1.3460   1.5106

          k =-0.2500-0.2887 0.0000 ( 10612 PWs)   bands (ev):

   -20.6192 -20.6180 -20.6150 -20.6120 -12.7412 -12.7385 -12.7371 -12.7366
   -10.4069 -10.4045 -10.4032 -10.4030  -8.2022  -8.1947  -8.1898  -8.1838
    -4.0140   1.6516   1.6528   1.6555   1.6630

     the Fermi energy is    -4.1672 ev

!    total energy              =     -92.72371637 Ry
     Harris-Foulkes estimate   =     -92.72371645 Ry
     estimated scf accuracy    <       0.00000009 Ry

     The total energy is the sum of the following terms:

     one-electron contribution =   -1179.16378717 Ry
     hartree contribution      =     593.25813089 Ry
     xc contribution           =     -29.30033952 Ry
     ewald contribution        =     522.49350924 Ry
     smearing contrib. (-TS)   =      -0.01122982 Ry

     convergence has been achieved in   4 iterations

     Forces acting on atoms (cartesian axes, Ry/au):

     atom    1 type  1   force =     0.00000000   -0.00025949   -0.00040926
     atom    2 type  1   force =     0.00003293   -0.00004186    0.00012191
     atom    3 type  1   force =     0.00003293    0.00004186    0.00012191
     atom    4 type  1   force =     0.00000000    0.00025949   -0.00040926
     atom    5 type  1   force =     0.00000000    0.00007160    0.00019968
     atom    6 type  1   force =    -0.00003293   -0.00004186    0.00012191
     atom    7 type  1   force =    -0.00003293    0.00004186    0.00012191
     atom    8 type  1   force =     0.00000000   -0.00007160    0.00019968
     atom    9 type  2   force =     0.00000000    0.00000000   -0.00006848

     Total force =     0.000797     Total SCF correction =     0.000915
     SCF correction compared to forces is large: reduce conv_thr to get better values

     number of scf cycles    =   3
     number of bfgs steps    =   1

     energy   old            =     -92.7236541388 Ry
     energy   new            =     -92.7237163714 Ry

     CASE: energy  _new < energy  _old

     new trust radius        =       0.0004779400 bohr
     new conv_thr            =       0.0000000409 Ry


ATOMIC_POSITIONS (angstrom)
C        1.230000000   0.001085595  -0.000324667
C        0.000002935   0.708680793   0.000100355
C        0.000002935   2.131882207   0.000100355
C        1.230000000   2.839477405  -0.000324667
C        3.690000000   0.001549610   0.000152961
C        2.459997065   0.708680793   0.000100355
C        2.459997065   2.131882207   0.000100355
C        3.690000000   2.839013390   0.000152961
H        1.230000000   1.420282000   2.999941993



     Writing output data file simple_example.save/
     NEW-OLD atomic charge density approx. for the potential

     negative rho (up, down):  5.825E-05 0.000E+00

     total cpu time spent up to now is       32.4 secs

     Self-consistent Calculation

     iteration #  1     ecut=    32.00 Ry     beta= 0.50
     Davidson diagonalization with overlap
     ethr =  1.00E-06,  avg # of iterations =  1.9

     Threshold (ethr) on eigenvalues was too large:
     Diagonalizing with lowered threshold

     Davidson diagonalization with overlap
     ethr =  1.30E-09,  avg # of iterations =  2.2

     negative rho (up, down):  5.825E-05 0.000E+00

     total cpu time spent up to now is       34.7 secs

     total energy              =     -92.72371667 Ry
     Harris-Foulkes estimate   =     -92.72371699 Ry
     estimated scf accuracy    <       0.00000051 Ry

     iteration #  2     ecut=    32.00 Ry     beta= 0.50
     Davidson diagonalization with overlap
     ethr =  1.54E-09,  avg # of iterations =  2.0

     negative rho (up, down):  5.830E-05 0.000E+00

     total cpu time spent up to now is       36.1 secs

     total energy              =     -92.72371637 Ry
     Harris-Foulkes estimate   =     -92.72371732 Ry
     estimated scf accuracy    <       0.00000534 Ry

     iteration #  3     ecut=    32.00 Ry     beta= 0.50
     Davidson diagonalization with overlap
     ethr =  1.54E-09,  avg # of iterations =  2.0

     negative rho (up, down):  5.826E-05 0.000E+00

     total cpu time spent up to now is       37.5 secs

     total energy              =     -92.72371685 Ry
     Harris-Foulkes estimate   =     -92.72371689 Ry
     estimated scf accuracy    <       0.00000016 Ry

     iteration #  4     ecut=    32.00 Ry     beta= 0.50
     Davidson diagonalization with overlap
     ethr =  4.86E-10,  avg # of iterations =  1.1

     negative rho (up, down):  5.825E-05 0.000E+00

     total cpu time spent up to now is       38.8 secs

     End of self-consistent calculation

          k = 0.0000 0.0000 0.0000 ( 10637 PWs)   bands (ev):

   -23.1402 -18.8961 -18.8951 -17.9728 -16.8576 -14.2670 -14.2668 -12.6161
   -12.6146 -11.1539 -10.2125  -6.9132  -6.8337  -6.2806  -6.2680  -5.9308
    -4.4050  -1.7858  -0.7462  -0.7462  -0.4906

          k = 0.0000 0.1443 0.0000 ( 10634 PWs)   bands (ev):

   -22.7740 -19.9147 -18.5746 -18.5733 -15.6941 -15.6936 -14.3837 -11.1600
   -11.1582 -10.7150  -9.8556  -8.1883  -7.5912  -7.4610  -6.1072  -6.0979
    -4.2693  -1.3056  -1.2992   0.0004   0.2865

          k = 0.0000-0.2887 0.0000 ( 10658 PWs)   bands (ev):

   -21.6869 -21.6838 -17.9640 -17.9609 -16.8867 -16.8844 -11.1490 -11.1463
   -10.1863 -10.1840  -9.4328  -9.4262  -8.8672  -8.8658  -5.9037  -5.8995
    -4.1355  -1.8406  -1.8190   1.3409   1.5135

          k = 0.1250 0.0000 0.0000 ( 10647 PWs)   bands (ev):

   -22.8656 -20.7059 -17.7380 -16.8364 -16.6338 -15.8718 -14.0150 -12.2713
   -11.2806 -10.8237 -10.7715  -8.2846  -7.9068  -7.4084  -5.5934  -4.3441
    -4.1487  -2.9519  -1.9059  -0.1256   1.7376

          k = 0.1250 0.1443 0.0000 ( 10605 PWs)   bands (ev):

   -22.5006 -20.3525 -19.6569 -17.7370 -16.0771 -14.2329 -13.5812 -12.2835
   -10.9002 -10.3880  -9.9131  -8.9796  -8.0835  -7.9074  -7.1525  -5.3142
    -4.2079  -1.9845   0.1024   0.3667   1.0305

          k = 0.1250-0.2887 0.0000 ( 10650 PWs)   bands (ev):

   -21.4179 -21.4149 -19.3180 -19.3151 -15.1221 -15.1196 -11.2561 -11.2533
   -10.2738 -10.2715  -9.7684  -9.7671  -9.1155  -9.1091  -6.8392  -6.8357
    -4.0693  -0.5439  -0.5342   1.7183   1.8797

          k =-0.2500 0.0000 0.0000 ( 10652 PWs)   bands (ev):

   -22.0497 -22.0451 -17.0380 -17.0325 -16.1067 -16.1053 -13.4213 -13.4202
   -10.0242 -10.0185  -9.8491  -9.8474  -8.8900  -8.8875  -4.5953  -4.5850
    -4.2673  -2.5675  -2.5617   0.8458   1.0240

          k =-0.2500 0.1443 0.0000 ( 10610 PWs)   bands (ev):

   -21.6884 -21.6839 -18.8965 -18.8925 -14.2448 -14.2425 -12.6425 -12.6418
   -11.1788 -11.1743  -9.4271  -9.4254  -8.8309  -8.8285  -6.2858  -6.2854
    -4.1391  -0.7231  -0.7198   1.3460   1.5108

          k =-0.2500-0.2887 0.0000 ( 10612 PWs)   bands (ev):

   -20.6192 -20.6179 -20.6166 -20.6118 -12.7426 -12.7386 -12.7373 -12.7361
   -10.4066 -10.4048 -10.4046 -10.4029  -8.2019  -8.1947  -8.1898  -8.1851
    -4.0143   1.6514   1.6514   1.6554   1.6633

     the Fermi energy is    -4.1675 ev

!    total energy              =     -92.72371688 Ry
     Harris-Foulkes estimate   =     -92.72371687 Ry
     estimated scf accuracy    <          2.5E-09 Ry

     The total energy is the sum of the following terms:

     one-electron contribution =   -1179.16487417 Ry
     hartree contribution      =     593.25895443 Ry
     xc contribution           =     -29.30035557 Ry
     ewald contribution        =     522.49378838 Ry
     smearing contrib. (-TS)   =      -0.01122995 Ry

     convergence has been achieved in   4 iterations

     Forces acting on atoms (cartesian axes, Ry/au):

     atom    1 type  1   force =     0.00000000    0.00012172   -0.00032549
     atom    2 type  1   force =     0.00002954    0.00003241    0.00008309
     atom    3 type  1   force =     0.00002954   -0.00003241    0.00008309
     atom    4 type  1   force =     0.00000000   -0.00012172   -0.00032549
     atom    5 type  1   force =     0.00000000   -0.00004780    0.00019789
     atom    6 type  1   force =    -0.00002954    0.00003241    0.00008309
     atom    7 type  1   force =    -0.00002954   -0.00003241    0.00008309
     atom    8 type  1   force =     0.00000000    0.00004780    0.00019789
     atom    9 type  2   force =     0.00000000    0.00000000   -0.00007715

     Total force =     0.000605     Total SCF correction =     0.000060

     number of scf cycles    =   4
     number of bfgs steps    =   2

     energy   old            =     -92.7237163714 Ry
     energy   new            =     -92.7237168795 Ry

     CASE: energy  _new < energy  _old

     new trust radius        =       0.0005257340 bohr
     new conv_thr            =       0.0000000100 Ry


ATOMIC_POSITIONS (angstrom)
C        1.230000000   0.001069068  -0.000602382
C        0.000026742   0.708676501   0.000176607
C        0.000026742   2.131886499   0.000176607
C        1.230000000   2.839493932  -0.000602382
C        3.690000000   0.001556118   0.000306724
C        2.459973258   0.708676501   0.000176607
C        2.459973258   2.131886499   0.000176607
C        3.690000000   2.839006882   0.000306724
H        1.230000000   1.420282000   2.999884889



     Writing output data file simple_example.save/
     NEW-OLD atomic charge density approx. for the potential

     negative rho (up, down):  5.825E-05 0.000E+00

     total cpu time spent up to now is       40.6 secs

     Self-consistent Calculation

     iteration #  1     ecut=    32.00 Ry     beta= 0.50
     Davidson diagonalization with overlap
     ethr =  1.00E-06,  avg # of iterations =  1.7

     Threshold (ethr) on eigenvalues was too large:
     Diagonalizing with lowered threshold

     Davidson diagonalization with overlap
     ethr =  1.85E-10,  avg # of iterations =  3.1

     negative rho (up, down):  5.825E-05 0.000E+00

     total cpu time spent up to now is       43.0 secs

     total energy              =     -92.72371731 Ry
     Harris-Foulkes estimate   =     -92.72371734 Ry
     estimated scf accuracy    <       0.00000009 Ry

     iteration #  2     ecut=    32.00 Ry     beta= 0.50
     Davidson diagonalization with overlap
     ethr =  2.74E-10,  avg # of iterations =  2.0

     negative rho (up, down):  5.825E-05 0.000E+00

     total cpu time spent up to now is       44.4 secs

     total energy              =     -92.72371732 Ry
     Harris-Foulkes estimate   =     -92.72371732 Ry
     estimated scf accuracy    <       0.00000001 Ry

     iteration #  3     ecut=    32.00 Ry     beta= 0.50
     Davidson diagonalization with overlap
     ethr =  4.49E-11,  avg # of iterations =  2.0

     negative rho (up, down):  5.825E-05 0.000E+00

     total cpu time spent up to now is       45.7 secs

     total energy              =     -92.72371730 Ry
     Harris-Foulkes estimate   =     -92.72371734 Ry
     estimated scf accuracy    <       0.00000017 Ry

     iteration #  4     ecut=    32.00 Ry     beta= 0.50
     Davidson diagonalization with overlap
     ethr =  4.49E-11,  avg # of iterations =  2.0

     negative rho (up, down):  5.825E-05 0.000E+00

     total cpu time spent up to now is       47.1 secs

     End of self-consistent calculation

          k = 0.0000 0.0000 0.0000 ( 10637 PWs)   bands (ev):

   -23.1402 -18.8962 -18.8951 -17.9728 -16.8576 -14.2669 -14.2668 -12.6161
   -12.6146 -11.1539 -10.2125  -6.9132  -6.8337  -6.2806  -6.2680  -5.9308
    -4.4051  -1.7858  -0.7462  -0.7462  -0.4907

          k = 0.0000 0.1443 0.0000 ( 10634 PWs)   bands (ev):

   -22.7740 -19.9147 -18.5747 -18.5732 -15.6941 -15.6935 -14.3837 -11.1600
   -11.1582 -10.7150  -9.8556  -8.1883  -7.5912  -7.4609  -6.1073  -6.0979
    -4.2693  -1.3056  -1.2991   0.0004   0.2865

          k = 0.0000-0.2887 0.0000 ( 10658 PWs)   bands (ev):

   -21.6869 -21.6838 -17.9640 -17.9608 -16.8868 -16.8844 -11.1490 -11.1463
   -10.1864 -10.1840  -9.4327  -9.4263  -8.8672  -8.8658  -5.9037  -5.8994
    -4.1355  -1.8406  -1.8190   1.3408   1.5135

          k = 0.1250 0.0000 0.0000 ( 10647 PWs)   bands (ev):

   -22.8656 -20.7059 -17.7380 -16.8364 -16.6338 -15.8718 -14.0150 -12.2713
   -11.2806 -10.8236 -10.7715  -8.2846  -7.9068  -7.4084  -5.5934  -4.3441
    -4.1488  -2.9519  -1.9059  -0.1257   1.7376

          k = 0.1250 0.1443 0.0000 ( 10605 PWs)   bands (ev):

   -22.5006 -20.3525 -19.6569 -17.7370 -16.0771 -14.2329 -13.5812 -12.2835
   -10.9002 -10.3880  -9.9131  -8.9796  -8.0835  -7.9074  -7.1525  -5.3142
    -4.2079  -1.9845   0.1024   0.3666   1.0305

          k = 0.1250-0.2887 0.0000 ( 10650 PWs)   bands (ev):

   -21.4180 -21.4149 -19.3181 -19.3150 -15.1221 -15.1195 -11.2562 -11.2532
   -10.2738 -10.2715  -9.7684  -9.7670  -9.1154  -9.1091  -6.8391  -6.8357
    -4.0693  -0.5439  -0.5342   1.7182   1.8797

          k =-0.2500 0.0000 0.0000 ( 10652 PWs)   bands (ev):

   -22.0496 -22.0452 -17.0378 -17.0327 -16.1068 -16.1051 -13.4213 -13.4202
   -10.0242 -10.0185  -9.8493  -9.8472  -8.8901  -8.8874  -4.5952  -4.5851
    -4.2673  -2.5674  -2.5617   0.8457   1.0240

          k =-0.2500 0.1443 0.0000 ( 10610 PWs)   bands (ev):

   -21.6883 -21.6840 -18.8964 -18.8926 -14.2449 -14.2424 -12.6424 -12.6419
   -11.1788 -11.1743  -9.4272  -9.4253  -8.8310  -8.8284  -6.2859  -6.2853
    -4.1391  -0.7231  -0.7197   1.3459   1.5108

          k =-0.2500-0.2887 0.0000 ( 10612 PWs)   bands (ev):

   -20.6190 -20.6177 -20.6168 -20.6119 -12.7425 -12.7387 -12.7374 -12.7359
   -10.4064 -10.4051 -10.4046 -10.4029  -8.2020  -8.1946  -8.1897  -8.1853
    -4.0143   1.6513   1.6515   1.6553   1.6634

     the Fermi energy is    -4.1675 ev

!    total energy              =     -92.72371730 Ry
     Harris-Foulkes estimate   =     -92.72371731 Ry
     estimated scf accuracy    <          1.1E-09 Ry

     The total energy is the sum of the following terms:

     one-electron contribution =   -1179.16606805 Ry
     hartree contribution      =     593.25969427 Ry
     xc contribution           =     -29.30035309 Ry
     ewald contribution        =     522.49423939 Ry
     smearing contrib. (-TS)   =      -0.01122982 Ry

     convergence has been achieved in   4 iterations

     Forces acting on atoms (cartesian axes, Ry/au):

     atom    1 type  1   force =     0.00000000    0.00015890   -0.00022148
     atom    2 type  1   force =    -0.00000865    0.00004093    0.00003643
     atom    3 type  1   force =    -0.00000865   -0.00004093    0.00003643
     atom    4 type  1   force =     0.00000000   -0.00015890   -0.00022148
     atom    5 type  1   force =     0.00000000   -0.00006369    0.00018826
     atom    6 type  1   force =     0.00000865    0.00004093    0.00003643
     atom    7 type  1   force =     0.00000865   -0.00004093    0.00003643
     atom    8 type  1   force =     0.00000000    0.00006369    0.00018826
     atom    9 type  2   force =     0.00000000    0.00000000   -0.00007927

     Total force =     0.000496     Total SCF correction =     0.000041

     number of scf cycles    =   5
     number of bfgs steps    =   3

     energy   old            =     -92.7237168795 Ry
     energy   new            =     -92.7237173037 Ry

     CASE: energy  _new < energy  _old

     new trust radius        =       0.0007886011 bohr
     new conv_thr            =       0.0000000100 Ry


ATOMIC_POSITIONS (angstrom)
C        1.230000000   0.001081789  -0.001019498
C        0.000032474   0.708680158   0.000272207
C        0.000032474   2.131882842   0.000272207
C        1.230000000   2.839481211  -0.001019498
C        3.690000000   0.001548150   0.000587862
C        2.459967526   0.708680158   0.000272207
C        2.459967526   2.131882842   0.000272207
C        3.690000000   2.839014850   0.000587862
H        1.230000000   1.420282000   2.999774446



     Writing output data file simple_example.save/
     NEW-OLD atomic charge density approx. for the potential

     negative rho (up, down):  5.825E-05 0.000E+00

     total cpu time spent up to now is       48.9 secs

     Self-consistent Calculation

     iteration #  1     ecut=    32.00 Ry     beta= 0.50
     Davidson diagonalization with overlap
     ethr =  1.00E-06,  avg # of iterations =  1.8

     Threshold (ethr) on eigenvalues was too large:
     Diagonalizing with lowered threshold

     Davidson diagonalization with overlap
     ethr =  6.04E-10,  avg # of iterations =  3.0

     negative rho (up, down):  5.825E-05 0.000E+00

     total cpu time spent up to now is       51.3 secs

     total energy              =     -92.72371772 Ry
     Harris-Foulkes estimate   =     -92.72371783 Ry
     estimated scf accuracy    <       0.00000028 Ry

     iteration #  2     ecut=    32.00 Ry     beta= 0.50
     Davidson diagonalization with overlap
     ethr =  8.52E-10,  avg # of iterations =  2.0

     negative rho (up, down):  5.829E-05 0.000E+00

     total cpu time spent up to now is       52.7 secs

     total energy              =     -92.72371760 Ry
     Harris-Foulkes estimate   =     -92.72371786 Ry
     estimated scf accuracy    <       0.00000112 Ry

     iteration #  3     ecut=    32.00 Ry     beta= 0.50
     Davidson diagonalization with overlap
     ethr =  8.52E-10,  avg # of iterations =  2.0

     negative rho (up, down):  5.825E-05 0.000E+00

     total cpu time spent up to now is       54.0 secs

     total energy              =     -92.72371775 Ry
     Harris-Foulkes estimate   =     -92.72371777 Ry
     estimated scf accuracy    <       0.00000026 Ry

     iteration #  4     ecut=    32.00 Ry     beta= 0.50
     Davidson diagonalization with overlap
     ethr =  7.79E-10,  avg # of iterations =  1.0

     negative rho (up, down):  5.825E-05 0.000E+00

     total cpu time spent up to now is       55.2 secs

     End of self-consistent calculation

          k = 0.0000 0.0000 0.0000 ( 10637 PWs)   bands (ev):

   -23.1402 -18.8961 -18.8951 -17.9728 -16.8576 -14.2669 -14.2668 -12.6161
   -12.6146 -11.1539 -10.2125  -6.9132  -6.8337  -6.2806  -6.2680  -5.9308
    -4.4052  -1.7857  -0.7462  -0.7461  -0.4907

          k = 0.0000 0.1443 0.0000 ( 10634 PWs)   bands (ev):

   -22.7740 -19.9147 -18.5746 -18.5733 -15.6940 -15.6935 -14.3837 -11.1600
   -11.1582 -10.7150  -9.8556  -8.1883  -7.5912  -7.4609  -6.1072  -6.0979
    -4.2694  -1.3056  -1.2992   0.0005   0.2864

          k = 0.0000-0.2887 0.0000 ( 10658 PWs)   bands (ev):

   -21.6869 -21.6838 -17.9640 -17.9609 -16.8867 -16.8844 -11.1490 -11.1463
   -10.1863 -10.1840  -9.4327  -9.4262  -8.8672  -8.8658  -5.9037  -5.8994
    -4.1355  -1.8405  -1.8191   1.3409   1.5136

          k = 0.1250 0.0000 0.0000 ( 10647 PWs)   bands (ev):

   -22.8656 -20.7059 -17.7380 -16.8364 -16.6338 -15.8718 -14.0150 -12.2713
   -11.2806 -10.8237 -10.7715  -8.2846  -7.9068  -7.4085  -5.5934  -4.3441
    -4.1488  -2.9519  -1.9058  -0.1257   1.7376

          k = 0.1250 0.1443 0.0000 ( 10605 PWs)   bands (ev):

   -22.5006 -20.3525 -19.6569 -17.7370 -16.0771 -14.2329 -13.5812 -12.2835
   -10.9002 -10.3880  -9.9131  -8.9796  -8.0835  -7.9073  -7.1525  -5.3142
    -4.2079  -1.9845   0.1025   0.3666   1.0305

          k = 0.1250-0.2887 0.0000 ( 10650 PWs)   bands (ev):

   -21.4179 -21.4149 -19.3180 -19.3151 -15.1220 -15.1195 -11.2561 -11.2533
   -10.2738 -10.2715  -9.7684  -9.7671  -9.1155  -9.1090  -6.8391  -6.8357
    -4.0693  -0.5438  -0.5343   1.7183   1.8798

          k =-0.2500 0.0000 0.0000 ( 10652 PWs)   bands (ev):

   -22.0495 -22.0452 -17.0378 -17.0327 -16.1067 -16.1052 -13.4213 -13.4202
   -10.0241 -10.0186  -9.8493  -9.8472  -8.8899  -8.8876  -4.5951  -4.5852
    -4.2674  -2.5676  -2.5615   0.8457   1.0242

          k =-0.2500 0.1443 0.0000 ( 10610 PWs)   bands (ev):

   -21.6883 -21.6840 -18.8964 -18.8927 -14.2448 -14.2425 -12.6424 -12.6419
   -11.1787 -11.1743  -9.4272  -9.4253  -8.8309  -8.8285  -6.2859  -6.2852
    -4.1391  -0.7232  -0.7197   1.3459   1.5110

          k =-0.2500-0.2887 0.0000 ( 10612 PWs)   bands (ev):

   -20.6190 -20.6177 -20.6167 -20.6120 -12.7424 -12.7387 -12.7374 -12.7360
   -10.4064 -10.4050 -10.4046 -10.4030  -8.2021  -8.1946  -8.1897  -8.1853
    -4.0143   1.6513   1.6517   1.6552   1.6631

     the Fermi energy is    -4.1675 ev

!    total energy              =     -92.72371776 Ry
     Harris-Foulkes estimate   =     -92.72371777 Ry
     estimated scf accuracy    <          1.6E-09 Ry

     The total energy is the sum of the following terms:

     one-electron contribution =   -1179.16744787 Ry
     hartree contribution      =     593.26020173 Ry
     xc contribution           =     -29.30034461 Ry
     ewald contribution        =     522.49510265 Ry
     smearing contrib. (-TS)   =      -0.01122967 Ry

     convergence has been achieved in   4 iterations

     Forces acting on atoms (cartesian axes, Ry/au):

     atom    1 type  1   force =     0.00000000    0.00011777   -0.00008070
     atom    2 type  1   force =    -0.00002554    0.00002777   -0.00001715
     atom    3 type  1   force =    -0.00002554   -0.00002777   -0.00001715
     atom    4 type  1   force =     0.00000000   -0.00011777   -0.00008070
     atom    5 type  1   force =     0.00000000   -0.00003777    0.00015490
     atom    6 type  1   force =     0.00002554    0.00002777   -0.00001715
     atom    7 type  1   force =     0.00002554   -0.00002777   -0.00001715
     atom    8 type  1   force =     0.00000000    0.00003777    0.00015490
     atom    9 type  2   force =     0.00000000    0.00000000   -0.00007981

     Total force =     0.000324     Total SCF correction =     0.000062
     SCF correction compared to forces is large: reduce conv_thr to get better values

     number of scf cycles    =   6
     number of bfgs steps    =   4

     energy   old            =     -92.7237173037 Ry
     energy   new            =     -92.7237177638 Ry

     CASE: energy  _new < energy  _old

     new trust radius        =       0.0007982946 bohr
     new conv_thr            =       0.0000000100 Ry


ATOMIC_POSITIONS (angstrom)
C        1.230000000   0.001112482  -0.001440821
C        0.000018914   0.708689162   0.000341114
C        0.000018914   2.131873838   0.000341114
C        1.230000000   2.839450518  -0.001440821
C        3.690000000   0.001538769   0.000950891
C        2.459981086   0.708689162   0.000341114
C        2.459981086   2.131873838   0.000341114
C        3.690000000   2.839024231   0.000950891
H        1.230000000   1.420282000   2.999615405



     Writing output data file simple_example.save/
     NEW-OLD atomic charge density approx. for the potential

     negative rho (up, down):  5.825E-05 0.000E+00

     total cpu time spent up to now is       57.1 secs

     Self-consistent Calculation

     iteration #  1     ecut=    32.00 Ry     beta= 0.50
     Davidson diagonalization with overlap
     ethr =  1.00E-06,  avg # of iterations =  1.9

     Threshold (ethr) on eigenvalues was too large:
     Diagonalizing with lowered threshold

     Davidson diagonalization with overlap
     ethr =  6.02E-10,  avg # of iterations =  3.0

     negative rho (up, down):  5.825E-05 0.000E+00

     total cpu time spent up to now is       59.5 secs

     total energy              =     -92.72371795 Ry
     Harris-Foulkes estimate   =     -92.72371805 Ry
     estimated scf accuracy    <       0.00000028 Ry

     iteration #  2     ecut=    32.00 Ry     beta= 0.50
     Davidson diagonalization with overlap
     ethr =  8.34E-10,  avg # of iterations =  2.0

     negative rho (up, down):  5.825E-05 0.000E+00

     total cpu time spent up to now is       60.8 secs

     total energy              =     -92.72371795 Ry
     Harris-Foulkes estimate   =     -92.72371797 Ry
     estimated scf accuracy    <       0.00000006 Ry

     iteration #  3     ecut=    32.00 Ry     beta= 0.50
     Davidson diagonalization with overlap
     ethr =  1.80E-10,  avg # of iterations =  2.0

     negative rho (up, down):  5.826E-05 0.000E+00

     total cpu time spent up to now is       62.2 secs

     total energy              =     -92.72371790 Ry
     Harris-Foulkes estimate   =     -92.72371803 Ry
     estimated scf accuracy    <       0.00000081 Ry

     iteration #  4     ecut=    32.00 Ry     beta= 0.50
     Davidson diagonalization with overlap
     ethr =  1.80E-10,  avg # of iterations =  2.0

     negative rho (up, down):  5.825E-05 0.000E+00

     total cpu time spent up to now is       63.5 secs

     End of self-consistent calculation

          k = 0.0000 0.0000 0.0000 ( 10637 PWs)   bands (ev):

   -23.1401 -18.8960 -18.8951 -17.9728 -16.8576 -14.2669 -14.2667 -12.6160
   -12.6147 -11.1539 -10.2124  -6.9132  -6.8336  -6.2804  -6.2680  -5.9308
    -4.4053  -1.7856  -0.7463  -0.7460  -0.4907

          k = 0.0000 0.1443 0.0000 ( 10634 PWs)   bands (ev):

   -22.7739 -19.9146 -18.5745 -18.5733 -15.6940 -15.6935 -14.3837 -11.1599
   -11.1583 -10.7149  -9.8556  -8.1883  -7.5912  -7.4609  -6.1071  -6.0979
    -4.2694  -1.3054  -1.2993   0.0006   0.2865

          k = 0.0000-0.2887 0.0000 ( 10658 PWs)   bands (ev):

   -21.6867 -21.6839 -17.9638 -17.9610 -16.8866 -16.8844 -11.1488 -11.1464
   -10.1862 -10.1841  -9.4328  -9.4261  -8.8670  -8.8659  -5.9036  -5.8995
    -4.1355  -1.8404  -1.8193   1.3409   1.5136

          k = 0.1250 0.0000 0.0000 ( 10647 PWs)   bands (ev):

   -22.8655 -20.7058 -17.7379 -16.8363 -16.6338 -15.8717 -14.0149 -12.2712
   -11.2806 -10.8236 -10.7714  -8.2845  -7.9067  -7.4084  -5.5934  -4.3441
    -4.1489  -2.9519  -1.9057  -0.1257   1.7376

          k = 0.1250 0.1443 0.0000 ( 10605 PWs)   bands (ev):

   -22.5005 -20.3524 -19.6569 -17.7370 -16.0771 -14.2329 -13.5812 -12.2834
   -10.9001 -10.3880  -9.9131  -8.9795  -8.0834  -7.9073  -7.1524  -5.3142
    -4.2079  -1.9845   0.1025   0.3666   1.0305

          k = 0.1250-0.2887 0.0000 ( 10650 PWs)   bands (ev):

   -21.4178 -21.4150 -19.3178 -19.3152 -15.1219 -15.1196 -11.2559 -11.2534
   -10.2736 -10.2716  -9.7683  -9.7671  -9.1155  -9.1089  -6.8392  -6.8355
    -4.0693  -0.5437  -0.5345   1.7183   1.8798

          k =-0.2500 0.0000 0.0000 ( 10652 PWs)   bands (ev):

   -22.0496 -22.0450 -17.0378 -17.0326 -16.1064 -16.1055 -13.4213 -13.4201
   -10.0239 -10.0186  -9.8491  -9.8473  -8.8897  -8.8877  -4.5950  -4.5852
    -4.2675  -2.5677  -2.5613   0.8456   1.0243

          k =-0.2500 0.1443 0.0000 ( 10610 PWs)   bands (ev):

   -21.6883 -21.6838 -18.8964 -18.8925 -14.2446 -14.2426 -12.6424 -12.6418
   -11.1786 -11.1744  -9.4271  -9.4253  -8.8306  -8.8286  -6.2858  -6.2852
    -4.1391  -0.7232  -0.7196   1.3458   1.5111

          k =-0.2500-0.2887 0.0000 ( 10612 PWs)   bands (ev):

   -20.6191 -20.6178 -20.6163 -20.6120 -12.7421 -12.7387 -12.7373 -12.7362
   -10.4065 -10.4046 -10.4046 -10.4031  -8.2021  -8.1946  -8.1897  -8.1850
    -4.0143   1.6514   1.6520   1.6552   1.6626

     the Fermi energy is    -4.1676 ev

!    total energy              =     -92.72371797 Ry
     Harris-Foulkes estimate   =     -92.72371796 Ry
     estimated scf accuracy    <          2.0E-09 Ry

     The total energy is the sum of the following terms:

     one-electron contribution =   -1179.16963741 Ry
     hartree contribution      =     593.26113331 Ry
     xc contribution           =     -29.30033381 Ry
     ewald contribution        =     522.49634947 Ry
     smearing contrib. (-TS)   =      -0.01122952 Ry

     convergence has been achieved in   4 iterations

     Forces acting on atoms (cartesian axes, Ry/au):

     atom    1 type  1   force =     0.00000000    0.00002791    0.00005753
     atom    2 type  1   force =    -0.00000525    0.00000034   -0.00005058
     atom    3 type  1   force =    -0.00000525   -0.00000034   -0.00005058
     atom    4 type  1   force =     0.00000000   -0.00002791    0.00005753
     atom    5 type  1   force =     0.00000000   -0.00001703    0.00008018
     atom    6 type  1   force =     0.00000525    0.00000034   -0.00005058
     atom    7 type  1   force =     0.00000525   -0.00000034   -0.00005058
     atom    8 type  1   force =     0.00000000    0.00001703    0.00008018
     atom    9 type  2   force =     0.00000000    0.00000000   -0.00007308

     Total force =     0.000193     Total SCF correction =     0.000033
     SCF correction compared to forces is large: reduce conv_thr to get better values

     bfgs converged in   7 scf cycles and   5 bfgs steps
     (criteria: energy <  1.0E-05 Ry, force <  1.0E-04 Ry/Bohr)

     End of BFGS Geometry Optimization

     Final energy   =     -92.7237179698 Ry
Begin final coordinates

ATOMIC_POSITIONS (angstrom)
C        1.230000000   0.001112482  -0.001440821
C        0.000018914   0.708689162   0.000341114
C        0.000018914   2.131873838   0.000341114
C        1.230000000   2.839450518  -0.001440821
C        3.690000000   0.001538769   0.000950891
C        2.459981086   0.708689162   0.000341114
C        2.459981086   2.131873838   0.000341114
C        3.690000000   2.839024231   0.000950891
H        1.230000000   1.420282000   2.999615405
End final coordinates



     Writing output data file simple_example.save/

     init_run     :      1.60s CPU      1.67s WALL (       1 calls)
     electrons    :     48.97s CPU     50.75s WALL (       7 calls)
     update_pot   :      5.86s CPU      5.96s WALL (       6 calls)
     forces       :      4.78s CPU      4.82s WALL (       7 calls)

     Called by init_run:
     wfcinit      :      0.47s CPU      0.50s WALL (       1 calls)
     potinit      :      0.63s CPU      0.66s WALL (       1 calls)
     hinit0       :      0.35s CPU      0.35s WALL (       1 calls)

     Called by electrons:
     c_bands      :     27.60s CPU     28.35s WALL (      37 calls)
     sum_band     :      7.02s CPU      7.18s WALL (      37 calls)
     v_of_rho     :     13.96s CPU     14.62s WALL (      40 calls)
     newd         :      2.79s CPU      3.09s WALL (      40 calls)
     mix_rho      :      0.23s CPU      0.23s WALL (      37 calls)

     Called by c_bands:
     init_us_2    :      0.38s CPU      0.38s WALL (     738 calls)
     cegterg      :     26.91s CPU     27.65s WALL (     333 calls)

     Called by sum_band:
     sum_band:bec :      0.01s CPU      0.01s WALL (     333 calls)
     addusdens    :      2.35s CPU      2.36s WALL (      37 calls)

     Called by *egterg:
     h_psi        :     18.55s CPU     19.26s WALL (    1201 calls)
     s_psi        :      2.36s CPU      2.37s WALL (    1201 calls)
     g_psi        :      0.05s CPU      0.05s WALL (     859 calls)
     cdiaghg      :      1.13s CPU      1.14s WALL (    1102 calls)

     Called by h_psi:
     h_psi:pot    :     18.44s CPU     19.15s WALL (    1201 calls)
     h_psi:calbec :      2.82s CPU      2.86s WALL (    1201 calls)
     vloc_psi     :     13.23s CPU     13.90s WALL (    1201 calls)
     add_vuspsi   :      2.38s CPU      2.39s WALL (    1201 calls)

     General routines
     calbec       :      4.81s CPU      4.87s WALL (    1786 calls)
     fft          :      7.75s CPU      8.13s WALL (    2530 calls)
     ffts         :      0.06s CPU      0.06s WALL (      77 calls)
     fftw         :     15.08s CPU     15.82s WALL (   40611 calls)
     interpolate  :      0.16s CPU      0.17s WALL (      40 calls)

     Parallel routines
     fft_scatt_xy :      1.78s CPU      1.84s WALL (   43218 calls)
     fft_scatt_yz :      4.60s CPU      4.98s WALL (   43218 calls)

     PWSCF        :   1m 2.19s CPU   1m 4.36s WALL


   This run was terminated on:  10: 9:26   1Nov2020            

=------------------------------------------------------------------------------=
   JOB DONE.
=------------------------------------------------------------------------------=
