
     Program PWSCF v.6.4.1 starts on  5Jan2021 at  8:35:14 

     This program is part of the open-source Quantum ESPRESSO suite
     for quantum simulation of materials; please cite
         "P. Giannozzi et al., J. Phys.:Condens. Matter 21 395502 (2009);
         "P. Giannozzi et al., J. Phys.:Condens. Matter 29 465901 (2017);
          URL http://www.quantum-espresso.org", 
     in publications or presentations arising from this work. More details at
     http://www.quantum-espresso.org/quote

     Parallel version (MPI), running on     8 processors

     MPI processes distributed on     1 nodes
     R & G space division:  proc/nbgrp/npool/nimage =       8
     Waiting for input...
     Reading input from standard input

     Current dimensions of program PWSCF are:
     Max number of different atomic species (ntypx) = 10
     Max number of k-points (npk) =  40000
     Max angular momentum in pseudopotentials (lmaxx) =  3
     Message from routine input:
     WARNING: "startingwfc" set to atomic+random may spoil restart
     Message from routine input:
     WARNING: "startingpot" set to atomic may spoil restart

     Atomic positions and unit cell read from directory:
     outputs/batch_graph+benzene.save/

     Message from routine readpp:
     file outputs/batch_graph+benzene.save/C.pbe-rrkjus.UPF not found
     Message from routine readpp:
     file outputs/batch_graph+benzene.save/H.pbe-rrkjus_psl.1.0.0.UPF not found

     IMPORTANT: XC functional enforced from input :
     Exchange-correlation      = VDW-DF ( 1  4  4  0 1 0)
     Any further DFT definition will be discarded
     Please, verify this is what you really want

               file C.pbe-rrkjus.UPF: wavefunction(s)  2S 2P renormalized

     Subspace diagonalization in iterative solution of the eigenvalue problem:
     a serial algorithm will be used


     Parallelization info
     --------------------
     sticks:   dense  smooth     PW     G-vecs:    dense   smooth      PW
     Min         714     285     79               126154    31889    4649
     Max         715     286     80               126163    31900    4658
     Sum        5713    2283    637              1009261   255153   37237



     bravais-lattice index     =            0
     lattice parameter (alat)  =       4.6487  a.u.
     unit-cell volume          =   10440.3175 (a.u.)^3
     number of atoms/cell      =           36
     number of atomic types    =            2
     number of electrons       =       126.00
     number of Kohn-Sham states=           76
     kinetic-energy cutoff     =      32.0000  Ry
     charge density cutoff     =     320.0000  Ry
     convergence threshold     =      1.0E-06
     mixing beta               =       0.5000
     number of iterations used =            8  plain     mixing
     Exchange-correlation      = VDW-DF ( 1  4  4  0 1 0)
     nstep                     =          200


     celldm(1)=   4.648726  celldm(2)=   0.000000  celldm(3)=   0.000000
     celldm(4)=   0.000000  celldm(5)=   0.000000  celldm(6)=   0.000000

     crystal axes: (cart. coord. in units of alat)
               a(1) = (   3.000000   0.000000   0.000000 )  
               a(2) = (   0.000000   3.464102   0.000000 )  
               a(3) = (   0.000000   0.000000  10.000000 )  

     reciprocal axes: (cart. coord. in units 2 pi/alat)
               b(1) = (  0.333333  0.000000  0.000000 )  
               b(2) = (  0.000000  0.288675  0.000000 )  
               b(3) = (  0.000000  0.000000  0.100000 )  


     PseudoPot. # 1 for C  read from file:
     ../../../pseudopotentials/C.pbe-rrkjus.UPF
     MD5 check sum: 00fb224312de0c5b6853bd333518df6f
     Pseudo is Ultrasoft, Zval =  4.0
     Generated by new atomic code, or converted to UPF format
     Using radial grid of  627 points,  4 beta functions with: 
                l(1) =   0
                l(2) =   0
                l(3) =   1
                l(4) =   1
     Q(r) pseudized with 0 coefficients 


     PseudoPot. # 2 for H  read from file:
     ../../../pseudopotentials/H.pbe-rrkjus_psl.1.0.0.UPF
     MD5 check sum: 3f4114867bd07edc7f1424d066fc1888
     Pseudo is Ultrasoft, Zval =  1.0
     Generated using "atomic" code by A. Dal Corso v.6.3MaX
     Using radial grid of  929 points,  2 beta functions with: 
                l(1) =   0
                l(2) =   0
     Q(r) pseudized with 0 coefficients 


     vdW kernel table read from file vdW_kernel_table
     MD5 check sum: 48e77a2e26edf626eeb0eaa751ad5cac

     atomic species   valence    mass     pseudopotential
        C              4.00    12.01070     C ( 1.00)
        H              1.00     1.00790     H ( 1.00)

     No symmetry found



   Cartesian axes

     site n.     atom                  positions (alat units)
         1           C   tau(   1) = (   0.5000945   0.0006894  -0.0724664  )
         2           C   tau(   2) = (  -0.0000023   0.2894817  -0.0743550  )
         3           C   tau(   3) = (  -0.0000012   0.8667895  -0.0778230  )
         4           C   tau(   4) = (   0.5001513   1.1550286  -0.0797573  )
         5           C   tau(   5) = (   0.5001235   1.7324024  -0.0772858  )
         6           C   tau(   6) = (  -0.0000024   2.0211481  -0.0745943  )
         7           C   tau(   7) = (  -0.0000016   2.5985576  -0.0703762  )
         8           C   tau(   8) = (   0.5000381   2.8871773  -0.0700559  )
         9           C   tau(   9) = (   1.4999982   0.0008809  -0.0734271  )
        10           C   tau(  10) = (   1.0001590   0.2893001  -0.0765125  )
        11           C   tau(  11) = (   1.0002241   0.8665694  -0.0816967  )
        12           C   tau(  12) = (   1.4999989   1.1549690  -0.0835714  )
        13           C   tau(  13) = (   1.4999988   1.7322135  -0.0808469  )
        14           C   tau(  14) = (   1.0002463   2.0208146  -0.0768802  )
        15           C   tau(  15) = (   1.0001549   2.5982975  -0.0717072  )
        16           C   tau(  16) = (   1.4999983   2.8872436  -0.0708570  )
        17           C   tau(  17) = (   2.4999021   0.0006890  -0.0724672  )
        18           C   tau(  18) = (   1.9998376   0.2893001  -0.0765135  )
        19           C   tau(  19) = (   1.9997736   0.8665692  -0.0816971  )
        20           C   tau(  20) = (   2.4998461   1.1550285  -0.0797577  )
        21           C   tau(  21) = (   2.4998733   1.7324025  -0.0772856  )
        22           C   tau(  22) = (   1.9997508   2.0208145  -0.0768795  )
        23           C   tau(  23) = (   1.9998426   2.5982976  -0.0717063  )
        24           C   tau(  24) = (   2.4999592   2.8871772  -0.0700557  )
        25           C   tau(  25) = (   1.7833959   0.6621578   1.3727687  )
        26           C   tau(  26) = (   1.2165614   0.6621304   1.3727805  )
        27           C   tau(  27) = (   0.9338378   1.1538749   1.3728146  )
        28           C   tau(  28) = (   1.2164401   1.6453519   1.3726927  )
        29           C   tau(  29) = (   1.7836097   1.6453965   1.3727043  )
        30           C   tau(  30) = (   2.0661815   1.1538652   1.3728144  )
        31           H   tau(  31) = (   2.0047656   0.2798206   1.3693577  )
        32           H   tau(  32) = (   0.9951733   0.2797926   1.3693383  )
        33           H   tau(  33) = (   0.4925434   1.1538555   1.3695609  )
        34           H   tau(  34) = (   0.9952062   2.0277290   1.3691747  )
        35           H   tau(  35) = (   2.0048670   2.0277515   1.3691552  )
        36           H   tau(  36) = (   2.5074577   1.1538584   1.3695607  )

     number of k points=    10  gaussian smearing, width (Ry)=  0.0200
                       cart. coord. in units 2pi/alat
        k(    1) = (   0.0000000   0.0000000   0.0000000), wk =   0.1250000
        k(    2) = (   0.0000000   0.0721688   0.0000000), wk =   0.2500000
        k(    3) = (   0.0000000  -0.1443376   0.0000000), wk =   0.1250000
        k(    4) = (   0.0833333   0.0000000   0.0000000), wk =   0.2500000
        k(    5) = (   0.0833333   0.0721688   0.0000000), wk =   0.2500000
        k(    6) = (   0.0833333  -0.1443376   0.0000000), wk =   0.2500000
        k(    7) = (  -0.1666667   0.0000000   0.0000000), wk =   0.1250000
        k(    8) = (  -0.1666667   0.0721688   0.0000000), wk =   0.2500000
        k(    9) = (  -0.1666667  -0.1443376   0.0000000), wk =   0.1250000
        k(   10) = (  -0.0833333   0.0721688   0.0000000), wk =   0.2500000

     Dense  grid:  1009261 G-vectors     FFT dimensions: (  80,  96, 270)

     Smooth grid:   255153 G-vectors     FFT dimensions: (  54,  60, 180)

     Estimated max dynamical RAM per process >     428.17 MB

     Estimated total dynamical RAM >       3.35 GB

     The initial density is read from file :
     outputs/batch_graph+benzene.save/charge-density


     negative rho (up, down):  1.985E-04 0.000E+00


     %%%%%%%%%%%%%%%%%%%%%%%%%%%%%%%%%%%%%%%%%%%%%%%%%%%%%%%%%%%%%%%%%%%%%%%%
     %                                                                      %
     % You are using vdW-DF, which was implemented by the Thonhauser group. %
     % Please cite the following two papers that made this development      %
     % possible and the two reviews that describe the various versions:     %
     %                                                                      %
     %   T. Thonhauser et al., PRL 115, 136402 (2015).                      %
     %   T. Thonhauser et al., PRB 76, 125112 (2007).                       %
     %   K. Berland et al., Rep. Prog. Phys. 78, 066501 (2015).             %
     %   D.C. Langreth et al., J. Phys.: Condens. Matter 21, 084203 (2009). %
     %                                                                      %
     %                                                                      %
     % If you are calculating the stress with vdW-DF, please also cite:     %
     %                                                                      %
     %   R. Sabatini et al., J. Phys.: Condens. Matter 24, 424209 (2012).   %
     %                                                                      %
     %%%%%%%%%%%%%%%%%%%%%%%%%%%%%%%%%%%%%%%%%%%%%%%%%%%%%%%%%%%%%%%%%%%%%%%%


     Starting wfcs are  126 randomized atomic wfcs

     total cpu time spent up to now is       23.0 secs

     Self-consistent Calculation

     iteration #  1     ecut=    32.00 Ry     beta= 0.50
     Davidson diagonalization with overlap
     c_bands:  1 eigenvalues not converged
     ethr =  1.00E-05,  avg # of iterations = 17.0

     Threshold (ethr) on eigenvalues was too large:
     Diagonalizing with lowered threshold

     Davidson diagonalization with overlap
     ethr =  2.32E-07,  avg # of iterations =  3.0

     negative rho (up, down):  1.985E-04 0.000E+00

     total cpu time spent up to now is      137.3 secs

     total energy              =    -351.28194961 Ry
     Harris-Foulkes estimate   =    -351.28212023 Ry
     estimated scf accuracy    <       0.00028921 Ry

     iteration #  2     ecut=    32.00 Ry     beta= 0.50
     Davidson diagonalization with overlap
     ethr =  2.30E-07,  avg # of iterations =  2.1

     negative rho (up, down):  1.985E-04 0.000E+00

     total cpu time spent up to now is      170.1 secs

     total energy              =    -351.28200109 Ry
     Harris-Foulkes estimate   =    -351.28201034 Ry
     estimated scf accuracy    <       0.00001641 Ry

     iteration #  3     ecut=    32.00 Ry     beta= 0.50
     Davidson diagonalization with overlap
     ethr =  1.30E-08,  avg # of iterations =  3.0

     negative rho (up, down):  1.986E-04 0.000E+00

     total cpu time spent up to now is      204.1 secs

     total energy              =    -351.28200551 Ry
     Harris-Foulkes estimate   =    -351.28200996 Ry
     estimated scf accuracy    <       0.00001117 Ry

     iteration #  4     ecut=    32.00 Ry     beta= 0.50
     Davidson diagonalization with overlap
     ethr =  8.87E-09,  avg # of iterations =  2.3

     negative rho (up, down):  1.985E-04 0.000E+00

     total cpu time spent up to now is      233.1 secs

     End of self-consistent calculation

          k = 0.0000 0.0000 0.0000 ( 31971 PWs)   bands (ev):

   -21.8586 -20.4036 -20.4018 -19.9264 -19.9232 -19.5718 -18.5194 -18.5152
   -18.5132 -18.5126 -16.8348 -16.8210 -16.6785 -15.5863 -15.0117 -15.0090
   -15.0081 -15.0076 -13.2832 -13.2440 -13.0358 -13.0344 -13.0333 -13.0325
   -12.8946 -12.8943 -11.3503 -10.2218 -10.2197  -9.9389  -9.8702  -9.8670
    -9.6533  -9.3355  -9.0406  -9.0379  -9.0314  -9.0314  -8.8949  -8.8549
    -8.8546  -8.7313  -8.6075  -8.2313  -8.1952  -7.6906  -7.6409  -7.5429
    -7.5409  -7.2742  -6.9001  -6.7725  -6.0999  -6.0990  -6.0760  -6.0718
    -5.5721  -5.5670  -4.7068  -4.6078  -4.6003  -2.3105  -2.3081  -2.3069
    -2.3062  -0.6033  -0.1472   0.3547   0.4652   0.6694   1.4167   1.4191
     1.4314   1.4412   1.4718   1.8644

          k = 0.0000 0.0722 0.0000 ( 31929 PWs)   bands (ev):

   -21.7669 -21.0362 -19.8371 -19.8337 -19.6007 -19.5681 -19.1261 -19.1240
   -17.7505 -17.7480 -17.5348 -16.8348 -16.8210 -15.8825 -15.8801 -14.5959
   -14.4802 -14.4802 -13.6337 -13.6328 -13.2817 -13.2443 -12.3736 -12.3726
   -12.3095 -12.3083 -11.5024 -11.3457 -10.6812 -10.6795 -10.0772 -10.0755
    -9.8289  -9.6486  -9.3361  -8.9761  -8.8041  -8.7157  -8.6056  -8.5437
    -8.5435  -8.3721  -8.3709  -8.2948  -8.1060  -7.6092  -7.5423  -7.3564
    -7.2091  -6.8968  -6.8961  -6.8188  -6.7320  -6.7125  -5.9317  -5.7629
    -5.2814  -5.2745  -5.2024  -4.6176  -4.6058  -3.3240  -3.3228  -1.3249
    -1.3229  -0.0102   0.0507   0.3637   0.4378   0.5398   0.5463   0.7983
     1.2291   1.6757   1.8336   2.2114

          k = 0.0000-0.1443 0.0000 ( 31940 PWs)   bands (ev):

   -21.4984 -21.4858 -19.5891 -19.5749 -19.5725 -19.5599 -19.5458 -18.6330
   -18.6272 -16.8633 -16.8540 -16.8515 -16.8507 -16.8265 -16.8171 -14.1035
   -14.1023 -14.0950 -14.0949 -13.2810 -13.2452 -13.1040 -13.1032 -11.4976
   -11.4959 -11.4912 -11.4901 -11.3413 -11.2760 -11.2740 -11.2723 -11.2713
    -9.6441  -9.5108  -9.4988  -9.3366  -8.7359  -8.6036  -8.5409  -8.5318
    -8.2350  -8.2346  -8.2292  -8.2288  -7.4580  -7.2579  -7.2537  -7.2396
    -7.1156  -6.9245  -6.9082  -6.8917  -6.7766  -6.2625  -6.2519  -6.2386
    -6.2091  -4.6760  -4.6380  -4.3323  -4.3279  -4.3031  -4.2898  -0.3943
    -0.3897  -0.3844  -0.3819   0.2229   0.3820   0.4525   0.8097   1.1704
     1.2305   1.4892   1.5121   1.9870

          k = 0.0833 0.0000 0.0000 ( 31951 PWs)   bands (ev):

   -21.7363 -20.7642 -20.2838 -20.2820 -19.5712 -19.3325 -19.3304 -18.8639
   -17.5079 -17.5060 -16.8344 -16.8325 -16.5738 -16.2243 -15.7378 -15.4853
   -14.8348 -14.5747 -14.5731 -14.0810 -13.2527 -13.2453 -12.3589 -12.1155
   -11.6623 -11.4424 -11.4406 -11.3101 -10.1327  -9.8963  -9.8948  -9.7914
    -9.7062  -9.4031  -9.3327  -9.1110  -9.1095  -8.9355  -8.9340  -8.7636
    -8.7255  -8.6972  -8.6074  -8.0902  -8.0575  -7.9975  -7.9957  -7.6166
    -7.3312  -6.9775  -6.9363  -6.7703  -6.7611  -6.4267  -6.0451  -5.8273
    -5.1721  -5.1649  -4.6472  -4.6228  -4.5076  -3.6077  -3.3338  -1.3525
    -1.0184  -0.6456   0.0204   0.0417   0.0658   0.4209   0.4656   0.8429
     1.3890   1.6341   2.0465   2.2325

          k = 0.0833 0.0722 0.0000 ( 31951 PWs)   bands (ev):

   -21.6447 -20.9152 -20.6736 -19.9540 -19.5714 -19.4779 -18.7763 -18.5450
   -18.0868 -17.4245 -16.8387 -16.8333 -16.8179 -16.5585 -16.1882 -15.0911
   -14.6013 -14.5050 -13.9887 -13.8658 -13.2515 -13.2462 -12.1730 -12.1607
   -11.9406 -11.7289 -11.4664 -11.3059 -10.6786 -10.2940  -9.7028  -9.6847
    -9.6772  -9.6396  -9.3334  -9.3106  -9.1058  -8.8489  -8.7441  -8.7235
    -8.7015  -8.5914  -8.5144  -8.4291  -8.1112  -7.7067  -7.4752  -7.3284
    -7.2908  -7.1114  -6.7792  -6.7646  -6.3837  -6.3403  -6.0788  -6.0000
    -5.6829  -5.0659  -4.6775  -4.6199  -4.5493  -3.9722  -3.7252  -0.9907
    -0.6702  -0.4963   0.0065   0.1748   0.4228   0.4421   0.7331   0.9698
     1.3626   1.4980   1.7338   1.8848

          k = 0.0833-0.1443 0.0000 ( 31876 PWs)   bands (ev):

   -21.3766 -21.3640 -20.4089 -20.3965 -19.5704 -18.5214 -18.5181 -18.5128
   -18.5083 -17.6111 -17.6055 -16.8351 -16.8324 -16.2615 -16.2559 -15.2021
   -15.2013 -13.2507 -13.2473 -13.0375 -13.0335 -13.0330 -13.0308 -12.9595
   -12.9557 -11.3432 -11.3366 -11.3014 -10.6545 -10.6518  -9.8735  -9.8687
    -9.6980  -9.3656  -9.3566  -9.3339  -9.0411  -9.0372  -9.0330  -9.0312
    -8.7352  -8.7343  -8.2141  -8.2110  -7.5432  -7.5368  -7.3072  -7.2221
    -7.2122  -6.7895  -6.7666  -6.5609  -6.5559  -6.1017  -6.0921  -6.0815
    -6.0729  -5.0790  -5.0528  -4.6264  -4.6049  -4.0782  -4.0640  -0.8483
    -0.8365   0.3612   0.4120   0.4304   0.5183   0.5293   0.9995   1.3438
     1.3921   1.4226   1.4281   1.4366

          k =-0.1667 0.0000 0.0000 ( 31854 PWs)   bands (ev):

   -21.3747 -21.3660 -19.9300 -19.9275 -19.9213 -19.9201 -19.5674 -17.6089
   -17.6078 -16.8442 -16.8343 -16.6783 -16.6764 -16.2634 -16.2562 -15.5888
   -15.5875 -15.2049 -15.1943 -13.2472 -13.2224 -12.9597 -12.9595 -11.3384
   -11.3376 -11.2643 -10.6590 -10.6498 -10.2209 -10.2201 -10.2179 -10.2149
    -9.7716  -9.3672  -9.3566  -9.3300  -8.8947  -8.8930  -8.8601  -8.8585
    -8.8570  -8.8549  -8.8271  -8.7199  -7.7234  -7.6510  -7.6484  -7.6380
    -7.2345  -7.2240  -7.2163  -6.7689  -6.6534  -6.5595  -6.5501  -5.0863
    -5.0462  -4.7140  -4.6960  -4.6177  -4.5813  -4.0815  -4.0659  -0.8501
    -0.8287  -0.6066  -0.6057   0.4207   0.4693   0.4763   0.5121   0.5299
     0.7546   1.3436   1.3721   2.0550

          k =-0.1667 0.0722 0.0000 ( 31908 PWs)   bands (ev):

   -21.2834 -21.2748 -20.5574 -20.5489 -19.5689 -19.1309 -19.1219 -17.5268
   -17.5256 -17.0998 -17.0921 -16.9316 -16.9289 -16.8420 -16.8337 -15.1875
   -15.1869 -14.2578 -14.2484 -13.5108 -13.5105 -13.2478 -13.2212 -11.4668
   -11.4592 -11.2603 -10.7705 -10.7696 -10.5557 -10.5466  -9.7683  -9.6888
    -9.6813  -9.3309  -9.2607  -9.2507  -9.2027  -9.2020  -9.1638  -9.1625
    -8.8271  -8.7365  -8.3840  -8.3811  -7.8523  -7.8510  -7.5863  -7.5812
    -7.3140  -6.7878  -6.7286  -6.7224  -6.6400  -6.5939  -6.5876  -5.0403
    -4.9994  -4.7753  -4.7575  -4.7091  -4.6544  -4.5635  -4.5290  -0.4498
    -0.4478  -0.1952  -0.1775   0.3170   0.3360   0.4403   0.5059   0.5453
     0.8746   1.4618   1.4891   1.6023

          k =-0.1667-0.1443 0.0000 ( 31784 PWs)   bands (ev):

   -21.0155 -21.0089 -21.0050 -20.9944 -19.5686 -18.1787 -18.1740 -18.1713
   -18.1645 -17.2939 -17.2927 -17.2825 -17.2785 -16.8429 -16.8348 -14.4022
   -14.4000 -14.3938 -14.3917 -13.2488 -13.2202 -12.8680 -12.8676 -12.8590
   -12.8586 -11.2561 -10.2444 -10.2369 -10.2363 -10.2261  -9.8778  -9.8778
    -9.8643  -9.8617  -9.7642  -9.3314  -8.9716  -8.9507  -8.9338  -8.9278
    -8.7766  -8.7050  -8.3267  -8.3258  -8.3251  -8.3216  -7.3043  -7.0077
    -7.0044  -7.0038  -6.9986  -6.7910  -6.6482  -5.7079  -5.6921  -5.6861
    -5.6629  -4.9442  -4.8909  -4.8823  -4.8630  -4.6078  -4.5767  -0.0842
    -0.0783  -0.0506  -0.0470   0.4032   0.5211   0.6468   1.0249   1.1338
     1.1444   1.1490   1.1684   1.3186

          k =-0.0833 0.0722 0.0000 ( 31951 PWs)   bands (ev):

   -21.6447 -20.9152 -20.6736 -19.9540 -19.5714 -19.4779 -18.7763 -18.5450
   -18.0868 -17.4245 -16.8386 -16.8335 -16.8179 -16.5585 -16.1882 -15.0911
   -14.6013 -14.5050 -13.9887 -13.8658 -13.2515 -13.2462 -12.1730 -12.1607
   -11.9406 -11.7289 -11.4664 -11.3059 -10.6786 -10.2940  -9.7028  -9.6847
    -9.6772  -9.6396  -9.3334  -9.3106  -9.1058  -8.8490  -8.7439  -8.7235
    -8.7016  -8.5914  -8.5144  -8.4291  -8.1112  -7.7067  -7.4752  -7.3284
    -7.2908  -7.1114  -6.7794  -6.7644  -6.3837  -6.3403  -6.0788  -6.0000
    -5.6829  -5.0659  -4.6775  -4.6199  -4.5493  -3.9722  -3.7252  -0.9907
    -0.6702  -0.4963   0.0065   0.1748   0.4230   0.4419   0.7331   0.9698
     1.3626   1.4980   1.7338   1.8848

     the Fermi energy is    -2.3079 ev

!    total energy              =    -351.28200781 Ry
     Harris-Foulkes estimate   =    -351.28200783 Ry
     estimated scf accuracy    <       0.00000035 Ry

     The total energy is the sum of the following terms:

     one-electron contribution =   -4565.63863456 Ry
     hartree contribution      =    2302.90443586 Ry
     xc contribution           =    -112.23802914 Ry
     ewald contribution        =    2023.69304090 Ry
     smearing contrib. (-TS)   =      -0.00282086 Ry

     convergence has been achieved in   4 iterations

     Forces acting on atoms (cartesian axes, Ry/au):

     atom    1 type  1   force =    -0.00016218   -0.00004427    0.00001073
     atom    2 type  1   force =    -0.00000006    0.00015401    0.00088650
     atom    3 type  1   force =    -0.00000068   -0.00011042    0.00023318
     atom    4 type  1   force =     0.00012900    0.00023375    0.00000522
     atom    5 type  1   force =    -0.00010713    0.00000332   -0.00017011
     atom    6 type  1   force =    -0.00000221    0.00023845    0.00036081
     atom    7 type  1   force =     0.00000115    0.00015247    0.00002678
     atom    8 type  1   force =     0.00002065   -0.00008172   -0.00012197
     atom    9 type  1   force =    -0.00000090    0.00004077   -0.00044611
     atom   10 type  1   force =     0.00002774    0.00027680   -0.00012164
     atom   11 type  1   force =    -0.00018912   -0.00016278    0.00006550
     atom   12 type  1   force =    -0.00000015    0.00018550    0.00007571
     atom   13 type  1   force =    -0.00000002   -0.00002294   -0.00021574
     atom   14 type  1   force =     0.00007590   -0.00002892   -0.00016011
     atom   15 type  1   force =    -0.00005373    0.00016312    0.00001796
     atom   16 type  1   force =     0.00000232    0.00019391    0.00020632
     atom   17 type  1   force =     0.00016143   -0.00004254    0.00001095
     atom   18 type  1   force =    -0.00002680    0.00027562   -0.00012119
     atom   19 type  1   force =     0.00018925   -0.00016309    0.00006499
     atom   20 type  1   force =    -0.00012630    0.00023412    0.00000500
     atom   21 type  1   force =     0.00010676    0.00000134   -0.00017024
     atom   22 type  1   force =    -0.00007486   -0.00002727   -0.00016038
     atom   23 type  1   force =     0.00005257    0.00016286    0.00001699
     atom   24 type  1   force =    -0.00002066   -0.00008161   -0.00012173
     atom   25 type  1   force =     0.00021221   -0.00012460   -0.00004651
     atom   26 type  1   force =    -0.00017607   -0.00002421   -0.00007798
     atom   27 type  1   force =    -0.00028176   -0.00016932   -0.00006557
     atom   28 type  1   force =     0.00003268   -0.00024833   -0.00005291
     atom   29 type  1   force =    -0.00002792   -0.00048815   -0.00008402
     atom   30 type  1   force =     0.00016911   -0.00001887   -0.00006678
     atom   31 type  2   force =     0.00002095    0.00004466    0.00001875
     atom   32 type  2   force =     0.00000885    0.00007708    0.00002851
     atom   33 type  2   force =    -0.00029131   -0.00012202    0.00005433
     atom   34 type  2   force =    -0.00010202   -0.00016914    0.00002562
     atom   35 type  2   force =     0.00008495   -0.00014641    0.00003526
     atom   36 type  2   force =     0.00034832   -0.00016116    0.00005391

     Total force =     0.001763     Total SCF correction =     0.001492
     SCF correction compared to forces is large: reduce conv_thr to get better values

     number of scf cycles    =  37
     number of bfgs steps    =  36

     energy   old            =    -351.2820045894 Ry
     energy   new            =    -351.2820078058 Ry

     CASE: energy  _new < energy  _old


     WARNING: bfgs curvature condition failed, Theta= 0.761
     new trust radius        =       0.0023195920 bohr
     new conv_thr            =       0.0000000100 Ry


ATOMIC_POSITIONS (angstrom)
C        1.230170431   0.001736737  -0.178170378
C       -0.000006173   0.712288123  -0.182126215
C       -0.000002289   2.132330450  -0.190584557
C        1.230394778   2.841356017  -0.195538924
C        1.230321972   4.261691922  -0.189960979
C       -0.000007131   4.972176929  -0.182849692
C       -0.000004757   6.392530290  -0.172570299
C        1.230087117   7.102404349  -0.172433195
C        3.689995288   0.002417113  -0.181451859
C        2.460386797   0.711764521  -0.188611131
C        2.460539959   2.131753394  -0.201240566
C        3.689997580   2.841166086  -0.206811869
C        3.689996537   4.261253544  -0.199700515
C        2.460586644   4.971208944  -0.189664598
C        2.460384651   6.391868259  -0.176845841
C        3.689994377   7.102736489  -0.174534623
C        6.149820783   0.001734770  -0.178172308
C        4.919602488   0.711765418  -0.188614120
C        4.919453071   2.131752541  -0.201241525
C        6.149597813   2.841355375  -0.195540239
C        6.149668581   4.261692876  -0.189959732
C        4.919405468   4.971207362  -0.189662387
C        4.919610224   6.391868553  -0.176843783
C        6.149906223   7.102404345  -0.172432581
C        4.387109363   1.628911207   3.376838087
C        2.992782970   1.628930079   3.376832510
C        2.297136591   2.838357947   3.376941132
C        2.992363784   4.047508701   3.376643827
C        4.387729704   4.047631785   3.376637031
C        5.082986128   2.838350291   3.376940706
H        4.931788548   0.688325102   3.369085058
H        2.448074742   0.688254686   3.369055413
H        1.211468650   2.838436878   3.369664707
H        2.448168582   4.988019442   3.368644394
H        4.931991027   4.988044367   3.368614802
H        6.168499478   2.838424733   3.369664249



     Writing output data file batch_graph+benzene.save/
     NEW-OLD atomic charge density approx. for the potential

     negative rho (up, down):  1.985E-04 0.000E+00

     total cpu time spent up to now is      248.4 secs

     Self-consistent Calculation

     iteration #  1     ecut=    32.00 Ry     beta= 0.50
     Davidson diagonalization with overlap
     ethr =  1.00E-06,  avg # of iterations =  2.0

     Threshold (ethr) on eigenvalues was too large:
     Diagonalizing with lowered threshold

     Davidson diagonalization with overlap
     ethr =  4.56E-09,  avg # of iterations =  2.7

     negative rho (up, down):  1.985E-04 0.000E+00

     total cpu time spent up to now is      308.2 secs

     total energy              =    -351.28200808 Ry
     Harris-Foulkes estimate   =    -351.28201140 Ry
     estimated scf accuracy    <       0.00000660 Ry

     iteration #  2     ecut=    32.00 Ry     beta= 0.50
     Davidson diagonalization with overlap
     ethr =  5.24E-09,  avg # of iterations =  2.7

     negative rho (up, down):  1.987E-04 0.000E+00

     total cpu time spent up to now is      339.9 secs

     total energy              =    -351.28200887 Ry
     Harris-Foulkes estimate   =    -351.28201048 Ry
     estimated scf accuracy    <       0.00000369 Ry

     iteration #  3     ecut=    32.00 Ry     beta= 0.50
     Davidson diagonalization with overlap
     ethr =  2.93E-09,  avg # of iterations =  2.7

     negative rho (up, down):  1.985E-04 0.000E+00

     total cpu time spent up to now is      369.4 secs

     total energy              =    -351.28200975 Ry
     Harris-Foulkes estimate   =    -351.28200983 Ry
     estimated scf accuracy    <       0.00000046 Ry

     iteration #  4     ecut=    32.00 Ry     beta= 0.50
     Davidson diagonalization with overlap
     ethr =  3.68E-10,  avg # of iterations =  2.1

     negative rho (up, down):  1.986E-04 0.000E+00

     total cpu time spent up to now is      397.9 secs

     total energy              =    -351.28200982 Ry
     Harris-Foulkes estimate   =    -351.28200982 Ry
     estimated scf accuracy    <       0.00000002 Ry

     iteration #  5     ecut=    32.00 Ry     beta= 0.50
     Davidson diagonalization with overlap
     ethr =  1.84E-11,  avg # of iterations =  3.0

     negative rho (up, down):  1.985E-04 0.000E+00

     total cpu time spent up to now is      429.6 secs

     End of self-consistent calculation

          k = 0.0000 0.0000 0.0000 ( 31971 PWs)   bands (ev):

   -21.8582 -20.4035 -20.4011 -19.9260 -19.9229 -19.5719 -18.5195 -18.5146
   -18.5125 -18.5124 -16.8349 -16.8215 -16.6781 -15.5858 -15.0114 -15.0087
   -15.0077 -15.0071 -13.2835 -13.2445 -13.0357 -13.0344 -13.0327 -13.0319
   -12.8943 -12.8940 -11.3506 -10.2214 -10.2195  -9.9385  -9.8702  -9.8663
    -9.6538  -9.3358  -9.0406  -9.0373  -9.0311  -9.0306  -8.8946  -8.8545
    -8.8542  -8.7312  -8.6084  -8.2310  -8.1948  -7.6901  -7.6406  -7.5431
    -7.5401  -7.2744  -6.9014  -6.7722  -6.0998  -6.0987  -6.0756  -6.0713
    -5.5718  -5.5665  -4.7067  -4.6081  -4.6004  -2.3102  -2.3078  -2.3065
    -2.3058  -0.6029  -0.1472   0.3542   0.4648   0.6697   1.4173   1.4193
     1.4312   1.4416   1.4718   1.8644

          k = 0.0000 0.0722 0.0000 ( 31929 PWs)   bands (ev):

   -21.7665 -21.0358 -19.8367 -19.8334 -19.6004 -19.5682 -19.1257 -19.1236
   -17.7502 -17.7476 -17.5344 -16.8349 -16.8215 -15.8821 -15.8797 -14.5956
   -14.4799 -14.4798 -13.6334 -13.6324 -13.2820 -13.2448 -12.3733 -12.3723
   -12.3091 -12.3080 -11.5020 -11.3460 -10.6809 -10.6792 -10.0768 -10.0751
    -9.8285  -9.6491  -9.3364  -8.9758  -8.8038  -8.7157  -8.6065  -8.5433
    -8.5431  -8.3718  -8.3705  -8.2944  -8.1057  -7.6088  -7.5419  -7.3562
    -7.2091  -6.8980  -6.8958  -6.8184  -6.7318  -6.7123  -5.9312  -5.7627
    -5.2810  -5.2742  -5.2021  -4.6179  -4.6061  -3.3236  -3.3225  -1.3246
    -1.3226  -0.0102   0.0510   0.3634   0.4376   0.5399   0.5463   0.7986
     1.2289   1.6757   1.8338   2.2113

          k = 0.0000-0.1443 0.0000 ( 31940 PWs)   bands (ev):

   -21.4977 -21.4858 -19.5891 -19.5742 -19.5717 -19.5600 -19.5458 -18.6328
   -18.6267 -16.8631 -16.8537 -16.8512 -16.8504 -16.8265 -16.8175 -14.1029
   -14.1016 -14.0949 -14.0949 -13.2814 -13.2456 -13.1039 -13.1025 -11.4975
   -11.4957 -11.4906 -11.4897 -11.3416 -11.2755 -11.2733 -11.2720 -11.2713
    -9.6446  -9.5101  -9.4988  -9.3369  -8.7358  -8.6044  -8.5403  -8.5317
    -8.2343  -8.2338  -8.2291  -8.2287  -7.4579  -7.2571  -7.2530  -7.2397
    -7.1160  -6.9235  -6.9083  -6.8929  -6.7763  -6.2623  -6.2516  -6.2382
    -6.2088  -4.6761  -4.6384  -4.3321  -4.3277  -4.3026  -4.2895  -0.3941
    -0.3894  -0.3840  -0.3815   0.2229   0.3814   0.4521   0.8096   1.1707
     1.2305   1.4900   1.5121   1.9870

          k = 0.0833 0.0000 0.0000 ( 31951 PWs)   bands (ev):

   -21.7359 -20.7638 -20.2837 -20.2813 -19.5714 -19.3324 -19.3297 -18.8635
   -17.5079 -17.5053 -16.8345 -16.8330 -16.5735 -16.2239 -15.7374 -15.4848
   -14.8344 -14.5747 -14.5724 -14.0807 -13.2530 -13.2458 -12.3585 -12.1152
   -11.6620 -11.4424 -11.4399 -11.3104 -10.1323  -9.8961  -9.8942  -9.7910
    -9.7068  -9.4028  -9.3330  -9.1109  -9.1088  -8.9354  -8.9333  -8.7642
    -8.7255  -8.6969  -8.6073  -8.0898  -8.0571  -7.9977  -7.9950  -7.6162
    -7.3313  -6.9771  -6.9361  -6.7715  -6.7609  -6.4264  -6.0449  -5.8268
    -5.1720  -5.1644  -4.6473  -4.6231  -4.5074  -3.6074  -3.3335  -1.3521
    -1.0181  -0.6451   0.0210   0.0418   0.0657   0.4204   0.4652   0.8431
     1.3890   1.6339   2.0463   2.2327

          k = 0.0833 0.0722 0.0000 ( 31951 PWs)   bands (ev):

   -21.6443 -20.9148 -20.6733 -19.9537 -19.5716 -19.4775 -18.7759 -18.5446
   -18.0865 -17.4241 -16.8388 -16.8336 -16.8177 -16.5582 -16.1878 -15.0907
   -14.6009 -14.5046 -13.9883 -13.8654 -13.2518 -13.2466 -12.1727 -12.1603
   -11.9403 -11.7285 -11.4660 -11.3062 -10.6783 -10.2936  -9.7033  -9.6846
    -9.6765  -9.6393  -9.3336  -9.3103  -9.1055  -8.8486  -8.7448  -8.7231
    -8.7015  -8.5912  -8.5142  -8.4287  -8.1108  -7.7063  -7.4748  -7.3285
    -7.2905  -7.1111  -6.7789  -6.7657  -6.3835  -6.3399  -6.0785  -5.9996
    -5.6825  -5.0656  -4.6776  -4.6201  -4.5493  -3.9719  -3.7249  -0.9904
    -0.6698  -0.4960   0.0069   0.1747   0.4225   0.4416   0.7333   0.9701
     1.3624   1.4980   1.7341   1.8849

          k = 0.0833-0.1443 0.0000 ( 31876 PWs)   bands (ev):

   -21.3759 -21.3640 -20.4081 -20.3965 -19.5705 -18.5207 -18.5179 -18.5124
   -18.5083 -17.6109 -17.6050 -16.8352 -16.8329 -16.2608 -16.2559 -15.2019
   -15.2008 -13.2511 -13.2478 -13.0373 -13.0334 -13.0323 -13.0303 -12.9588
   -12.9557 -11.3426 -11.3365 -11.3017 -10.6538 -10.6517  -9.8733  -9.8682
    -9.6986  -9.3649  -9.3566  -9.3341  -9.0407  -9.0365  -9.0329  -9.0311
    -8.7359  -8.7343  -8.2142  -8.2103  -7.5424  -7.5367  -7.3074  -7.2213
    -7.2122  -6.7892  -6.7678  -6.5607  -6.5554  -6.1013  -6.0913  -6.0814
    -6.0727  -5.0786  -5.0526  -4.6266  -4.6051  -4.0775  -4.0640  -0.8481
    -0.8361   0.3612   0.4116   0.4301   0.5184   0.5295   0.9995   1.3442
     1.3920   1.4234   1.4283   1.4369

          k =-0.1667 0.0000 0.0000 ( 31854 PWs)   bands (ev):

   -21.3744 -21.3656 -19.9301 -19.9268 -19.9212 -19.9195 -19.5676 -17.6086
   -17.6073 -16.8447 -16.8344 -16.6783 -16.6757 -16.2631 -16.2559 -15.5886
   -15.5869 -15.2048 -15.1936 -13.2476 -13.2227 -12.9594 -12.9591 -11.3381
   -11.3371 -11.2646 -10.6586 -10.6495 -10.2211 -10.2195 -10.2176 -10.2139
    -9.7722  -9.3669  -9.3562  -9.3302  -8.8946  -8.8924  -8.8600  -8.8576
    -8.8571  -8.8544  -8.8280  -8.7199  -7.7229  -7.6509  -7.6478  -7.6377
    -7.2346  -7.2235  -7.2163  -6.7686  -6.6545  -6.5594  -6.5494  -5.0861
    -5.0457  -4.7137  -4.6955  -4.6178  -4.5818  -4.0811  -4.0657  -0.8500
    -0.8281  -0.6060  -0.6057   0.4204   0.4692   0.4758   0.5122   0.5303
     0.7546   1.3437   1.3725   2.0547

          k =-0.1667 0.0722 0.0000 ( 31908 PWs)   bands (ev):

   -21.2831 -21.2744 -20.5571 -20.5485 -19.5690 -19.1306 -19.1215 -17.5265
   -17.5251 -17.0995 -17.0917 -16.9315 -16.9283 -16.8425 -16.8338 -15.1873
   -15.1865 -14.2576 -14.2478 -13.5105 -13.5101 -13.2482 -13.2215 -11.4666
   -11.4586 -11.2605 -10.7703 -10.7690 -10.5553 -10.5463  -9.7689  -9.6885
    -9.6810  -9.3312  -9.2604  -9.2503  -9.2021  -9.2018  -9.1637  -9.1619
    -8.8279  -8.7364  -8.3836  -8.3808  -7.8521  -7.8504  -7.5858  -7.5811
    -7.3142  -6.7875  -6.7283  -6.7222  -6.6409  -6.5937  -6.5869  -5.0402
    -4.9989  -4.7750  -4.7570  -4.7089  -4.6542  -4.5639  -4.5290  -0.4492
    -0.4478  -0.1950  -0.1769   0.3174   0.3360   0.4400   0.5055   0.5453
     0.8746   1.4620   1.4895   1.6019

          k =-0.1667-0.1443 0.0000 ( 31784 PWs)   bands (ev):

   -21.0149 -21.0080 -21.0050 -20.9945 -19.5687 -18.1786 -18.1736 -18.1710
   -18.1639 -17.2931 -17.2917 -17.2831 -17.2782 -16.8434 -16.8349 -14.4020
   -14.3995 -14.3937 -14.3912 -13.2492 -13.2205 -12.8677 -12.8675 -12.8588
   -12.8577 -11.2563 -10.2438 -10.2364 -10.2361 -10.2262  -9.8772  -9.8769
    -9.8646  -9.8613  -9.7649  -9.3317  -8.9718  -8.9499  -8.9338  -8.9272
    -8.7772  -8.7050  -8.3261  -8.3253  -8.3251  -8.3214  -7.3045  -7.0071
    -7.0041  -7.0037  -6.9980  -6.7907  -6.6494  -5.7075  -5.6919  -5.6856
    -5.6627  -4.9445  -4.8901  -4.8815  -4.8626  -4.6080  -4.5773  -0.0833
    -0.0785  -0.0504  -0.0469   0.4028   0.5206   0.6468   1.0249   1.1345
     1.1441   1.1500   1.1685   1.3184

          k =-0.0833 0.0722 0.0000 ( 31951 PWs)   bands (ev):

   -21.6443 -20.9148 -20.6733 -19.9537 -19.5716 -19.4775 -18.7759 -18.5446
   -18.0865 -17.4241 -16.8386 -16.8338 -16.8177 -16.5582 -16.1878 -15.0907
   -14.6009 -14.5046 -13.9883 -13.8655 -13.2518 -13.2466 -12.1727 -12.1603
   -11.9403 -11.7285 -11.4660 -11.3062 -10.6783 -10.2936  -9.7033  -9.6846
    -9.6765  -9.6394  -9.3336  -9.3103  -9.1055  -8.8487  -8.7446  -8.7231
    -8.7015  -8.5912  -8.5142  -8.4287  -8.1109  -7.7063  -7.4748  -7.3285
    -7.2905  -7.1111  -6.7790  -6.7656  -6.3834  -6.3399  -6.0785  -5.9996
    -5.6825  -5.0656  -4.6775  -4.6202  -4.5492  -3.9719  -3.7249  -0.9904
    -0.6698  -0.4959   0.0069   0.1747   0.4226   0.4415   0.7333   0.9701
     1.3624   1.4979   1.7341   1.8849

     the Fermi energy is    -2.3076 ev

!    total energy              =    -351.28200982 Ry
     Harris-Foulkes estimate   =    -351.28200982 Ry
     estimated scf accuracy    <          4.3E-09 Ry

     The total energy is the sum of the following terms:

     one-electron contribution =   -4565.61907009 Ry
     hartree contribution      =    2302.89718559 Ry
     xc contribution           =    -112.23791672 Ry
     ewald contribution        =    2023.68061226 Ry
     smearing contrib. (-TS)   =      -0.00282086 Ry

     convergence has been achieved in   5 iterations

     Forces acting on atoms (cartesian axes, Ry/au):

     atom    1 type  1   force =    -0.00000864   -0.00007626    0.00002173
     atom    2 type  1   force =     0.00000046   -0.00022380    0.00093792
     atom    3 type  1   force =    -0.00000380    0.00002469    0.00016507
     atom    4 type  1   force =     0.00006613    0.00030327   -0.00027147
     atom    5 type  1   force =    -0.00020346    0.00010262   -0.00011239
     atom    6 type  1   force =    -0.00000303    0.00017863    0.00055437
     atom    7 type  1   force =     0.00000371   -0.00001745   -0.00028138
     atom    8 type  1   force =     0.00004607    0.00021024   -0.00002556
     atom    9 type  1   force =    -0.00000311   -0.00026250   -0.00044123
     atom   10 type  1   force =    -0.00010153    0.00013546   -0.00010171
     atom   11 type  1   force =    -0.00018058   -0.00007507   -0.00001510
     atom   12 type  1   force =    -0.00000228    0.00033531    0.00053467
     atom   13 type  1   force =    -0.00000067   -0.00011366   -0.00021830
     atom   14 type  1   force =     0.00016197   -0.00001000   -0.00007412
     atom   15 type  1   force =     0.00000422    0.00008373    0.00012205
     atom   16 type  1   force =     0.00000680    0.00021472   -0.00004799
     atom   17 type  1   force =     0.00000529   -0.00007033    0.00002204
     atom   18 type  1   force =     0.00010680    0.00013042   -0.00010073
     atom   19 type  1   force =     0.00018278   -0.00007389   -0.00001552
     atom   20 type  1   force =    -0.00006278    0.00030386   -0.00027093
     atom   21 type  1   force =     0.00020298    0.00009641   -0.00011291
     atom   22 type  1   force =    -0.00016179   -0.00000362   -0.00007461
     atom   23 type  1   force =    -0.00001126    0.00008254    0.00012145
     atom   24 type  1   force =    -0.00004839    0.00020997   -0.00002570
     atom   25 type  1   force =     0.00053176   -0.00025695   -0.00001364
     atom   26 type  1   force =    -0.00042049   -0.00046904   -0.00001555
     atom   27 type  1   force =    -0.00027326    0.00028180   -0.00001635
     atom   28 type  1   force =     0.00032329   -0.00046744   -0.00002351
     atom   29 type  1   force =    -0.00024835   -0.00080888   -0.00002326
     atom   30 type  1   force =    -0.00014315    0.00031477   -0.00001581
     atom   31 type  2   force =    -0.00007145    0.00009009   -0.00004047
     atom   32 type  2   force =     0.00012094    0.00020124   -0.00003770
     atom   33 type  2   force =    -0.00019117   -0.00017058   -0.00001439
     atom   34 type  2   force =    -0.00016418   -0.00003461   -0.00003737
     atom   35 type  2   force =     0.00015949    0.00003146   -0.00003595
     atom   36 type  2   force =     0.00038071   -0.00019713   -0.00001566

     Total force =     0.002329     Total SCF correction =     0.000142

     number of scf cycles    =  38
     number of bfgs steps    =  37

     energy   old            =    -351.2820078058 Ry
     energy   new            =    -351.2820098189 Ry

     CASE: energy  _new < energy  _old

     new trust radius        =       0.0014458277 bohr
     new conv_thr            =       0.0000000100 Ry


ATOMIC_POSITIONS (angstrom)
C        1.230087507   0.001749691  -0.178016032
C       -0.000006411   0.712257523  -0.181361728
C       -0.000003182   2.132334641  -0.190660677
C        1.230444828   2.841415308  -0.195658370
C        1.230292733   4.261673198  -0.190328974
C       -0.000008850   4.972202697  -0.182353695
C       -0.000004910   6.392540440  -0.172033723
C        1.230104048   7.102385766  -0.172430292
C        3.689994569   0.002520777  -0.182000695
C        2.460354348   0.711880583  -0.188730280
C        2.460487678   2.131739933  -0.201093582
C        3.689997539   2.841217023  -0.206868278
C        3.689995580   4.261256566  -0.199747882
C        2.460615239   4.971239041  -0.189867810
C        2.460390642   6.391980989  -0.176813465
C        3.689994512   7.102880024  -0.174118644
C        6.149902399   0.001747974  -0.178017073
C        4.919633962   0.711880979  -0.188733058
C        4.919505231   2.131739078  -0.201094151
C        6.149547296   2.841414127  -0.195659604
C        6.149696253   4.261673277  -0.190327470
C        4.919376400   4.971237891  -0.189865891
C        4.919603631   6.391981013  -0.176812232
C        6.149888660   7.102385661  -0.172429707
C        4.387226291   1.628885980   3.376592030
C        2.992707198   1.628948994   3.376534752
C        2.296870559   2.838330645   3.376643657
C        2.992396774   4.047406650   3.376375415
C        4.387681681   4.047438811   3.376317675
C        5.083224627   2.838342233   3.376644866
H        4.931859271   0.688340795   3.369257073
H        2.448044415   0.688309924   3.369247903
H        1.211092978   2.838353541   3.369885087
H        2.448118398   4.987835118   3.368824940
H        4.932005938   4.987826744   3.368815529
H        6.168882169   2.838305992   3.369884388



     Writing output data file batch_graph+benzene.save/
     NEW-OLD atomic charge density approx. for the potential

     negative rho (up, down):  1.986E-04 0.000E+00

     total cpu time spent up to now is      444.7 secs

     Self-consistent Calculation

     iteration #  1     ecut=    32.00 Ry     beta= 0.50
     Davidson diagonalization with overlap
     ethr =  1.00E-06,  avg # of iterations =  2.0

     Threshold (ethr) on eigenvalues was too large:
     Diagonalizing with lowered threshold

     Davidson diagonalization with overlap
     ethr =  7.97E-10,  avg # of iterations =  3.0

     negative rho (up, down):  1.986E-04 0.000E+00

     total cpu time spent up to now is      507.7 secs

     total energy              =    -351.28201234 Ry
     Harris-Foulkes estimate   =    -351.28201282 Ry
     estimated scf accuracy    <       0.00000135 Ry

     iteration #  2     ecut=    32.00 Ry     beta= 0.50
     Davidson diagonalization with overlap
     ethr =  1.07E-09,  avg # of iterations =  2.0

     negative rho (up, down):  1.986E-04 0.000E+00

     total cpu time spent up to now is      537.1 secs

     total energy              =    -351.28201250 Ry
     Harris-Foulkes estimate   =    -351.28201253 Ry
     estimated scf accuracy    <       0.00000019 Ry

     iteration #  3     ecut=    32.00 Ry     beta= 0.50
     Davidson diagonalization with overlap
     ethr =  1.48E-10,  avg # of iterations =  2.3

     negative rho (up, down):  1.986E-04 0.000E+00

     total cpu time spent up to now is      568.4 secs

     total energy              =    -351.28201252 Ry
     Harris-Foulkes estimate   =    -351.28201254 Ry
     estimated scf accuracy    <       0.00000007 Ry

     iteration #  4     ecut=    32.00 Ry     beta= 0.50
     Davidson diagonalization with overlap
     ethr =  5.44E-11,  avg # of iterations =  2.4

     negative rho (up, down):  1.986E-04 0.000E+00

     total cpu time spent up to now is      597.9 secs

     total energy              =    -351.28201254 Ry
     Harris-Foulkes estimate   =    -351.28201254 Ry
     estimated scf accuracy    <       0.00000001 Ry

     iteration #  5     ecut=    32.00 Ry     beta= 0.50
     Davidson diagonalization with overlap
     ethr =  8.98E-12,  avg # of iterations =  2.4

     negative rho (up, down):  1.986E-04 0.000E+00

     total cpu time spent up to now is      626.9 secs

     End of self-consistent calculation

          k = 0.0000 0.0000 0.0000 ( 31971 PWs)   bands (ev):

   -21.8579 -20.4032 -20.4008 -19.9257 -19.9226 -19.5714 -18.5190 -18.5144
   -18.5122 -18.5121 -16.8343 -16.8217 -16.6777 -15.5857 -15.0110 -15.0083
   -15.0075 -15.0068 -13.2834 -13.2446 -13.0353 -13.0339 -13.0325 -13.0316
   -12.8939 -12.8936 -11.3504 -10.2209 -10.2189  -9.9383  -9.8700  -9.8661
    -9.6540  -9.3356  -9.0403  -9.0371  -9.0308  -9.0303  -8.8941  -8.8544
    -8.8541  -8.7304  -8.6090  -8.2308  -8.1945  -7.6898  -7.6403  -7.5427
    -7.5395  -7.2741  -6.9027  -6.7714  -6.0996  -6.0986  -6.0751  -6.0709
    -5.5712  -5.5665  -4.7062  -4.6084  -4.6000  -2.3097  -2.3073  -2.3063
    -2.3056  -0.6028  -0.1471   0.3535   0.4646   0.6698   1.4176   1.4197
     1.4315   1.4420   1.4718   1.8646

          k = 0.0000 0.0722 0.0000 ( 31929 PWs)   bands (ev):

   -21.7662 -21.0355 -19.8364 -19.8330 -19.6000 -19.5677 -19.1254 -19.1233
   -17.7498 -17.7473 -17.5341 -16.8344 -16.8217 -15.8818 -15.8794 -14.5953
   -14.4795 -14.4795 -13.6330 -13.6321 -13.2819 -13.2449 -12.3729 -12.3720
   -12.3088 -12.3076 -11.5018 -11.3458 -10.6804 -10.6788 -10.0765 -10.0749
    -9.8282  -9.6493  -9.3362  -8.9754  -8.8033  -8.7150  -8.6071  -8.5431
    -8.5429  -8.3716  -8.3702  -8.2942  -8.1052  -7.6085  -7.5416  -7.3559
    -7.2088  -6.8993  -6.8953  -6.8177  -6.7316  -6.7118  -5.9312  -5.7620
    -5.2807  -5.2739  -5.2016  -4.6175  -4.6063  -3.3233  -3.3222  -1.3243
    -1.3222  -0.0099   0.0510   0.3628   0.4375   0.5401   0.5466   0.7988
     1.2288   1.6758   1.8339   2.2113

          k = 0.0000-0.1443 0.0000 ( 31940 PWs)   bands (ev):

   -21.4973 -21.4856 -19.5887 -19.5739 -19.5711 -19.5598 -19.5454 -18.6327
   -18.6261 -16.8628 -16.8535 -16.8507 -16.8501 -16.8260 -16.8176 -14.1025
   -14.1013 -14.0946 -14.0945 -13.2812 -13.2457 -13.1038 -13.1021 -11.4974
   -11.4955 -11.4899 -11.4891 -11.3414 -11.2752 -11.2729 -11.2717 -11.2710
    -9.6448  -9.5097  -9.4986  -9.3367  -8.7351  -8.6051  -8.5400  -8.5311
    -8.2337  -8.2332  -8.2292  -8.2289  -7.4576  -7.2565  -7.2527  -7.2396
    -7.1156  -6.9230  -6.9086  -6.8942  -6.7755  -6.2622  -6.2506  -6.2380
    -6.2082  -4.6758  -4.6386  -4.3321  -4.3272  -4.3020  -4.2893  -0.3939
    -0.3890  -0.3836  -0.3812   0.2230   0.3807   0.4519   0.8096   1.1709
     1.2304   1.4905   1.5120   1.9871

          k = 0.0833 0.0000 0.0000 ( 31951 PWs)   bands (ev):

   -21.7356 -20.7635 -20.2834 -20.2810 -19.5709 -19.3321 -19.3294 -18.8632
   -17.5076 -17.5050 -16.8339 -16.8332 -16.5731 -16.2236 -15.7370 -15.4847
   -14.8342 -14.5743 -14.5721 -14.0803 -13.2528 -13.2458 -12.3583 -12.1148
   -11.6615 -11.4421 -11.4395 -11.3102 -10.1321  -9.8959  -9.8941  -9.7907
    -9.7071  -9.4023  -9.3328  -9.1106  -9.1085  -8.9351  -8.9331  -8.7647
    -8.7247  -8.6964  -8.6072  -8.0896  -8.0568  -7.9972  -7.9944  -7.6161
    -7.3310  -6.9767  -6.9358  -6.7727  -6.7601  -6.4261  -6.0442  -5.8268
    -5.1717  -5.1641  -4.6470  -4.6234  -4.5069  -3.6072  -3.3330  -1.3520
    -1.0176  -0.6450   0.0215   0.0423   0.0656   0.4198   0.4649   0.8433
     1.3892   1.6339   2.0461   2.2333

          k = 0.0833 0.0722 0.0000 ( 31951 PWs)   bands (ev):

   -21.6440 -20.9145 -20.6729 -19.9533 -19.5711 -19.4772 -18.7756 -18.5443
   -18.0861 -17.4238 -16.8385 -16.8335 -16.8175 -16.5578 -16.1875 -15.0903
   -14.6005 -14.5044 -13.9881 -13.8651 -13.2516 -13.2467 -12.1723 -12.1600
   -11.9399 -11.7282 -11.4658 -11.3060 -10.6779 -10.2933  -9.7036  -9.6843
    -9.6762  -9.6391  -9.3334  -9.3098  -9.1050  -8.8482  -8.7454  -8.7229
    -8.7009  -8.5907  -8.5140  -8.4285  -8.1106  -7.7060  -7.4746  -7.3282
    -7.2900  -7.1108  -6.7782  -6.7668  -6.3831  -6.3396  -6.0781  -5.9993
    -5.6823  -5.0651  -4.6776  -4.6200  -4.5491  -3.9715  -3.7246  -0.9900
    -0.6696  -0.4955   0.0071   0.1748   0.4223   0.4410   0.7337   0.9702
     1.3623   1.4980   1.7344   1.8850

          k = 0.0833-0.1443 0.0000 ( 31876 PWs)   bands (ev):

   -21.3755 -21.3638 -20.4077 -20.3963 -19.5700 -18.5203 -18.5178 -18.5118
   -18.5080 -17.6108 -17.6044 -16.8346 -16.8331 -16.2603 -16.2559 -15.2016
   -15.2002 -13.2509 -13.2478 -13.0372 -13.0333 -13.0319 -13.0297 -12.9584
   -12.9556 -11.3423 -11.3360 -11.3014 -10.6534 -10.6516  -9.8733  -9.8674
    -9.6989  -9.3645  -9.3564  -9.3339  -9.0403  -9.0360  -9.0327  -9.0307
    -8.7366  -8.7336  -8.2140  -8.2099  -7.5418  -7.5369  -7.3071  -7.2207
    -7.2125  -6.7884  -6.7690  -6.5607  -6.5546  -6.1011  -6.0909  -6.0812
    -6.0722  -5.0784  -5.0520  -4.6269  -4.6048  -4.0770  -4.0640  -0.8479
    -0.8355   0.3614   0.4114   0.4297   0.5186   0.5297   0.9995   1.3444
     1.3921   1.4238   1.4282   1.4376

          k =-0.1667 0.0000 0.0000 ( 31854 PWs)   bands (ev):

   -21.3741 -21.3652 -19.9298 -19.9266 -19.9208 -19.9191 -19.5671 -17.6083
   -17.6070 -16.8449 -16.8338 -16.6779 -16.6755 -16.2628 -16.2554 -15.5882
   -15.5865 -15.2046 -15.1935 -13.2477 -13.2225 -12.9590 -12.9586 -11.3379
   -11.3369 -11.2643 -10.6582 -10.6491 -10.2208 -10.2192 -10.2174 -10.2138
    -9.7727  -9.3667  -9.3558  -9.3300  -8.8943  -8.8922  -8.8597  -8.8571
    -8.8566  -8.8540  -8.8287  -8.7191  -7.7226  -7.6506  -7.6476  -7.6372
    -7.2342  -7.2231  -7.2156  -6.7678  -6.6555  -6.5592  -6.5495  -5.0859
    -5.0454  -4.7135  -4.6953  -4.6175  -4.5820  -4.0808  -4.0651  -0.8498
    -0.8281  -0.6056  -0.6052   0.4202   0.4692   0.4752   0.5127   0.5308
     0.7548   1.3438   1.3727   2.0545

          k =-0.1667 0.0722 0.0000 ( 31908 PWs)   bands (ev):

   -21.2828 -21.2740 -20.5568 -20.5481 -19.5685 -19.1304 -19.1211 -17.5262
   -17.5248 -17.0992 -17.0913 -16.9312 -16.9281 -16.8427 -16.8332 -15.1868
   -15.1861 -14.2574 -14.2476 -13.5101 -13.5097 -13.2483 -13.2213 -11.4664
   -11.4584 -11.2602 -10.7700 -10.7688 -10.5549 -10.5458  -9.7694  -9.6880
    -9.6806  -9.3309  -9.2602  -9.2500  -9.2019  -9.2015  -9.1634  -9.1617
    -8.8286  -8.7357  -8.3832  -8.3805  -7.8517  -7.8501  -7.5854  -7.5806
    -7.3139  -6.7867  -6.7280  -6.7220  -6.6418  -6.5935  -6.5868  -5.0400
    -4.9986  -4.7748  -4.7567  -4.7086  -4.6538  -4.5641  -4.5286  -0.4488
    -0.4473  -0.1948  -0.1768   0.3177   0.3364   0.4399   0.5049   0.5454
     0.8748   1.4621   1.4898   1.6017

          k =-0.1667-0.1443 0.0000 ( 31784 PWs)   bands (ev):

   -21.0146 -21.0075 -21.0048 -20.9942 -19.5682 -18.1786 -18.1730 -18.1709
   -18.1633 -17.2927 -17.2912 -17.2829 -17.2780 -16.8436 -16.8343 -14.4019
   -14.3994 -14.3930 -14.3906 -13.2493 -13.2202 -12.8676 -12.8672 -12.8590
   -12.8571 -11.2560 -10.2435 -10.2360 -10.2355 -10.2256  -9.8767  -9.8766
    -9.8645  -9.8613  -9.7654  -9.3314  -8.9718  -8.9493  -8.9336  -8.9269
    -8.7778  -8.7043  -8.3260  -8.3249  -8.3248  -8.3207  -7.3042  -7.0064
    -7.0042  -7.0031  -6.9982  -6.7899  -6.6504  -5.7074  -5.6918  -5.6851
    -5.6619  -4.9444  -4.8897  -4.8810  -4.8626  -4.6077  -4.5775  -0.0832
    -0.0782  -0.0497  -0.0462   0.4026   0.5200   0.6469   1.0252   1.1350
     1.1440   1.1506   1.1681   1.3185

          k =-0.0833 0.0722 0.0000 ( 31951 PWs)   bands (ev):

   -21.6440 -20.9145 -20.6729 -19.9533 -19.5711 -19.4772 -18.7756 -18.5443
   -18.0861 -17.4238 -16.8383 -16.8338 -16.8174 -16.5578 -16.1875 -15.0903
   -14.6005 -14.5044 -13.9881 -13.8651 -13.2516 -13.2467 -12.1723 -12.1600
   -11.9399 -11.7282 -11.4658 -11.3060 -10.6779 -10.2933  -9.7036  -9.6843
    -9.6762  -9.6391  -9.3334  -9.3098  -9.1050  -8.8482  -8.7453  -8.7229
    -8.7009  -8.5907  -8.5140  -8.4286  -8.1106  -7.7060  -7.4746  -7.3282
    -7.2900  -7.1108  -6.7781  -6.7668  -6.3831  -6.3396  -6.0781  -5.9994
    -5.6823  -5.0651  -4.6774  -4.6202  -4.5490  -3.9715  -3.7246  -0.9900
    -0.6696  -0.4955   0.0071   0.1748   0.4222   0.4411   0.7337   0.9702
     1.3623   1.4980   1.7344   1.8850

     the Fermi energy is    -2.3072 ev

!    total energy              =    -351.28201253 Ry
     Harris-Foulkes estimate   =    -351.28201254 Ry
     estimated scf accuracy    <          1.7E-09 Ry

     The total energy is the sum of the following terms:

     one-electron contribution =   -4565.69807912 Ry
     hartree contribution      =    2302.93776586 Ry
     xc contribution           =    -112.23752485 Ry
     ewald contribution        =    2023.71864645 Ry
     smearing contrib. (-TS)   =      -0.00282087 Ry

     convergence has been achieved in   5 iterations

     Forces acting on atoms (cartesian axes, Ry/au):

     atom    1 type  1   force =     0.00021905   -0.00009028    0.00007621
     atom    2 type  1   force =    -0.00000024   -0.00018828    0.00092478
     atom    3 type  1   force =    -0.00000185    0.00009382    0.00034218
     atom    4 type  1   force =    -0.00014249    0.00016121   -0.00031745
     atom    5 type  1   force =    -0.00007438    0.00027711    0.00011160
     atom    6 type  1   force =    -0.00000355    0.00022383    0.00063851
     atom    7 type  1   force =     0.00000271   -0.00006945   -0.00049896
     atom    8 type  1   force =    -0.00003892    0.00034611    0.00009668
     atom    9 type  1   force =    -0.00000283   -0.00019228   -0.00032053
     atom   10 type  1   force =    -0.00015567   -0.00009767   -0.00013184
     atom   11 type  1   force =    -0.00001372    0.00012764   -0.00017617
     atom   12 type  1   force =    -0.00000258    0.00017661    0.00061176
     atom   13 type  1   force =     0.00000109   -0.00005068   -0.00032095
     atom   14 type  1   force =     0.00006561    0.00004828   -0.00004598
     atom   15 type  1   force =     0.00006357   -0.00009943    0.00013899
     atom   16 type  1   force =     0.00000563    0.00014434   -0.00044766
     atom   17 type  1   force =    -0.00022092   -0.00008538    0.00007611
     atom   18 type  1   force =     0.00016068   -0.00010123   -0.00013060
     atom   19 type  1   force =     0.00001495    0.00012795   -0.00017665
     atom   20 type  1   force =     0.00014486    0.00016218   -0.00031670
     atom   21 type  1   force =     0.00007361    0.00027231    0.00011092
     atom   22 type  1   force =    -0.00006764    0.00005272   -0.00004645
     atom   23 type  1   force =    -0.00006949   -0.00010015    0.00013879
     atom   24 type  1   force =     0.00003717    0.00034638    0.00009656
     atom   25 type  1   force =     0.00031666   -0.00010009   -0.00002097
     atom   26 type  1   force =    -0.00023169   -0.00039302    0.00001523
     atom   27 type  1   force =    -0.00007989    0.00023880    0.00001286
     atom   28 type  1   force =     0.00007496   -0.00058101   -0.00002462
     atom   29 type  1   force =    -0.00003966   -0.00067246    0.00001350
     atom   30 type  1   force =    -0.00022244    0.00009209    0.00001278
     atom   31 type  2   force =    -0.00005811    0.00001242   -0.00007526
     atom   32 type  2   force =     0.00010484    0.00012204   -0.00008355
     atom   33 type  2   force =    -0.00003327   -0.00014951   -0.00006113
     atom   34 type  2   force =    -0.00013175    0.00003824   -0.00007558
     atom   35 type  2   force =     0.00012412    0.00006046   -0.00008467
     atom   36 type  2   force =     0.00018159   -0.00015358   -0.00006172

     Total force =     0.002274     Total SCF correction =     0.000083

     number of scf cycles    =  39
     number of bfgs steps    =  38

     energy   old            =    -351.2820098189 Ry
     energy   new            =    -351.2820125301 Ry

     CASE: energy  _new < energy  _old

     new trust radius        =       0.0031059226 bohr
     new conv_thr            =       0.0000000100 Ry


ATOMIC_POSITIONS (angstrom)
C        1.229977491   0.001767734  -0.177483733
C       -0.000007565   0.712192094  -0.179719448
C       -0.000003754   2.132262225  -0.190052563
C        1.230461007   2.841521576  -0.195319935
C        1.230322216   4.261708026  -0.190324133
C       -0.000012597   4.972179033  -0.181053884
C       -0.000006634   6.392639915  -0.171088880
C        1.230120666   7.102314437  -0.172196201
C        3.689993735   0.002639629  -0.182630964
C        2.460364888   0.712046722  -0.188640924
C        2.460407115   2.131765641  -0.200466159
C        3.689997582   2.841271034  -0.206381208
C        3.689994310   4.261284596  -0.199569270
C        2.460602659   4.971336331  -0.189867513
C        2.460420326   6.392114329  -0.176568245
C        3.689992751   7.103067365  -0.173580416
C        6.150010987   0.001764833  -0.177483311
C        4.919620285   0.712047883  -0.188642954
C        4.919583925   2.131763696  -0.200465781
C        6.149528656   2.841519584  -0.195320402
C        6.149662924   4.261708222  -0.190322264
C        4.919385956   4.971333942  -0.189866144
C        4.919573911   6.392114478  -0.176568004
C        6.149870905   7.102314462  -0.172195827
C        4.387235640   1.628958296   3.375594130
C        2.992734282   1.629176642   3.375472604
C        2.296521682   2.838165345   3.375577960
C        2.992267300   4.047289122   3.375332938
C        4.387756344   4.047282094   3.375212282
C        5.083670946   2.838191671   3.375582591
H        4.932019279   0.688327738   3.368729264
H        2.447946409   0.688330203   3.368751188
H        1.210502249   2.838242885   3.369453902
H        2.448083209   4.987488802   3.368312987
H        4.931978886   4.987391262   3.368334689
H        6.169422029   2.838137781   3.369453628



     Writing output data file batch_graph+benzene.save/
     NEW-OLD atomic charge density approx. for the potential

     negative rho (up, down):  1.988E-04 0.000E+00

     total cpu time spent up to now is      642.1 secs

     Self-consistent Calculation

     iteration #  1     ecut=    32.00 Ry     beta= 0.50
     Davidson diagonalization with overlap
     ethr =  1.00E-06,  avg # of iterations =  2.0

     Threshold (ethr) on eigenvalues was too large:
     Diagonalizing with lowered threshold

     Davidson diagonalization with overlap
     ethr =  7.53E-09,  avg # of iterations =  2.9

     negative rho (up, down):  1.987E-04 0.000E+00

     total cpu time spent up to now is      701.2 secs

     total energy              =    -351.28201316 Ry
     Harris-Foulkes estimate   =    -351.28201738 Ry
     estimated scf accuracy    <       0.00001019 Ry

     iteration #  2     ecut=    32.00 Ry     beta= 0.50
     Davidson diagonalization with overlap
     ethr =  8.09E-09,  avg # of iterations =  2.0

     negative rho (up, down):  1.987E-04 0.000E+00

     total cpu time spent up to now is      732.1 secs

     total energy              =    -351.28201472 Ry
     Harris-Foulkes estimate   =    -351.28201501 Ry
     estimated scf accuracy    <       0.00000134 Ry

     iteration #  3     ecut=    32.00 Ry     beta= 0.50
     Davidson diagonalization with overlap
     ethr =  1.07E-09,  avg # of iterations =  2.0

     negative rho (up, down):  1.987E-04 0.000E+00

     total cpu time spent up to now is      762.6 secs

     total energy              =    -351.28201495 Ry
     Harris-Foulkes estimate   =    -351.28201496 Ry
     estimated scf accuracy    <       0.00000025 Ry

     iteration #  4     ecut=    32.00 Ry     beta= 0.50
     Davidson diagonalization with overlap
     ethr =  1.99E-10,  avg # of iterations =  2.0

     negative rho (up, down):  1.987E-04 0.000E+00

     total cpu time spent up to now is      793.0 secs

     total energy              =    -351.28201498 Ry
     Harris-Foulkes estimate   =    -351.28201498 Ry
     estimated scf accuracy    <       0.00000002 Ry

     iteration #  5     ecut=    32.00 Ry     beta= 0.50
     Davidson diagonalization with overlap
     ethr =  1.87E-11,  avg # of iterations =  2.0

     negative rho (up, down):  1.986E-04 0.000E+00

     total cpu time spent up to now is      823.5 secs

     End of self-consistent calculation

          k = 0.0000 0.0000 0.0000 ( 31971 PWs)   bands (ev):

   -21.8576 -20.4029 -20.4004 -19.9254 -19.9222 -19.5708 -18.5185 -18.5142
   -18.5120 -18.5117 -16.8332 -16.8222 -16.6774 -15.5855 -15.0105 -15.0079
   -15.0072 -15.0067 -13.2832 -13.2447 -13.0349 -13.0337 -13.0322 -13.0311
   -12.8936 -12.8932 -11.3502 -10.2205 -10.2185  -9.9380  -9.8698  -9.8658
    -9.6542  -9.3353  -9.0399  -9.0367  -9.0307  -9.0300  -8.8937  -8.8542
    -8.8540  -8.7290  -8.6103  -8.2307  -8.1941  -7.6896  -7.6400  -7.5424
    -7.5390  -7.2734  -6.9047  -6.7700  -6.0994  -6.0986  -6.0746  -6.0704
    -5.5707  -5.5664  -4.7059  -4.6088  -4.5993  -2.3094  -2.3069  -2.3062
    -2.3054  -0.6026  -0.1468   0.3528   0.4644   0.6701   1.4177   1.4198
     1.4317   1.4426   1.4721   1.8650

          k = 0.0000 0.0722 0.0000 ( 31929 PWs)   bands (ev):

   -21.7659 -21.0352 -19.8361 -19.8327 -19.5997 -19.5671 -19.1250 -19.1230
   -17.7495 -17.7470 -17.5338 -16.8333 -16.8222 -15.8814 -15.8791 -14.5951
   -14.4792 -14.4791 -13.6327 -13.6317 -13.2817 -13.2450 -12.3726 -12.3717
   -12.3084 -12.3072 -11.5015 -11.3455 -10.6801 -10.6783 -10.0762 -10.0746
    -9.8280  -9.6495  -9.3359  -8.9751  -8.8029  -8.7136  -8.6084  -8.5428
    -8.5427  -8.3712  -8.3701  -8.2941  -8.1048  -7.6084  -7.5414  -7.3556
    -7.2082  -6.9012  -6.8948  -6.8168  -6.7312  -6.7110  -5.9311  -5.7615
    -5.2805  -5.2737  -5.2012  -4.6168  -4.6067  -3.3230  -3.3218  -1.3240
    -1.3219  -0.0093   0.0509   0.3621   0.4374   0.5402   0.5468   0.7990
     1.2290   1.6761   1.8341   2.2112

          k = 0.0000-0.1443 0.0000 ( 31940 PWs)   bands (ev):

   -21.4970 -21.4852 -19.5881 -19.5738 -19.5707 -19.5597 -19.5447 -18.6328
   -18.6254 -16.8627 -16.8534 -16.8500 -16.8498 -16.8251 -16.8179 -14.1023
   -14.1011 -14.0942 -14.0941 -13.2810 -13.2459 -13.1038 -13.1017 -11.4977
   -11.4956 -11.4890 -11.4882 -11.3411 -11.2749 -11.2726 -11.2714 -11.2708
    -9.6450  -9.5094  -9.4983  -9.3364  -8.7337  -8.6063  -8.5400  -8.5303
    -8.2332  -8.2326  -8.2292  -8.2291  -7.4574  -7.2561  -7.2526  -7.2396
    -7.1149  -6.9222  -6.9091  -6.8962  -6.7741  -6.2624  -6.2493  -6.2381
    -6.2075  -4.6753  -4.6391  -4.3322  -4.3268  -4.3013  -4.2889  -0.3939
    -0.3888  -0.3831  -0.3807   0.2234   0.3799   0.4517   0.8098   1.1712
     1.2305   1.4912   1.5117   1.9873

          k = 0.0833 0.0000 0.0000 ( 31951 PWs)   bands (ev):

   -21.7353 -20.7632 -20.2832 -20.2806 -19.5702 -19.3318 -19.3291 -18.8629
   -17.5073 -17.5046 -16.8338 -16.8328 -16.5727 -16.2233 -15.7366 -15.4845
   -14.8341 -14.5741 -14.5716 -14.0799 -13.2525 -13.2460 -12.3580 -12.1144
   -11.6611 -11.4418 -11.4391 -11.3099 -10.1319  -9.8956  -9.8939  -9.7905
    -9.7075  -9.4019  -9.3325  -9.1104  -9.1081  -8.9349  -8.9328  -8.7658
    -8.7233  -8.6959  -8.6072  -8.0895  -8.0564  -7.9970  -7.9938  -7.6159
    -7.3305  -6.9764  -6.9355  -6.7745  -6.7587  -6.4259  -6.0437  -5.8267
    -5.1716  -5.1638  -4.6465  -4.6237  -4.5064  -3.6069  -3.3326  -1.3518
    -1.0173  -0.6449   0.0221   0.0427   0.0656   0.4192   0.4647   0.8435
     1.3896   1.6341   2.0461   2.2339

          k = 0.0833 0.0722 0.0000 ( 31951 PWs)   bands (ev):

   -21.6437 -20.9142 -20.6726 -19.9530 -19.5704 -19.4769 -18.7753 -18.5440
   -18.0858 -17.4235 -16.8383 -16.8332 -16.8172 -16.5575 -16.1872 -15.0900
   -14.6001 -14.5042 -13.9878 -13.8647 -13.2514 -13.2468 -12.1719 -12.1597
   -11.9395 -11.7280 -11.4656 -11.3056 -10.6776 -10.2930  -9.7040  -9.6842
    -9.6757  -9.6389  -9.3331  -9.3094  -9.1046  -8.8478  -8.7466  -8.7226
    -8.6998  -8.5902  -8.5138  -8.4283  -8.1103  -7.7058  -7.4744  -7.3277
    -7.2896  -7.1103  -6.7771  -6.7683  -6.3828  -6.3393  -6.0778  -5.9990
    -5.6820  -5.0648  -4.6777  -4.6196  -4.5488  -3.9711  -3.7244  -0.9896
    -0.6694  -0.4952   0.0073   0.1751   0.4221   0.4403   0.7340   0.9705
     1.3625   1.4983   1.7347   1.8855

          k = 0.0833-0.1443 0.0000 ( 31876 PWs)   bands (ev):

   -21.3752 -21.3634 -20.4074 -20.3959 -19.5694 -18.5200 -18.5179 -18.5111
   -18.5077 -17.6109 -17.6037 -16.8338 -16.8334 -16.2597 -16.2558 -15.2013
   -15.1998 -13.2506 -13.2479 -13.0374 -13.0333 -13.0313 -13.0289 -12.9581
   -12.9554 -11.3421 -11.3355 -11.3011 -10.6530 -10.6514  -9.8734  -9.8665
    -9.6993  -9.3642  -9.3561  -9.3336  -9.0404  -9.0352  -9.0326  -9.0302
    -8.7380  -8.7323  -8.2139  -8.2096  -7.5410  -7.5372  -7.3065  -7.2198
    -7.2129  -6.7870  -6.7707  -6.5609  -6.5535  -6.1012  -6.0906  -6.0809
    -6.0716  -5.0785  -5.0514  -4.6272  -4.6041  -4.0765  -4.0640  -0.8478
    -0.8349   0.3617   0.4111   0.4292   0.5187   0.5300   0.9998   1.3447
     1.3921   1.4243   1.4280   1.4383

          k =-0.1667 0.0000 0.0000 ( 31854 PWs)   bands (ev):

   -21.3738 -21.3649 -19.9295 -19.9263 -19.9206 -19.9186 -19.5664 -17.6080
   -17.6067 -16.8454 -16.8328 -16.6777 -16.6752 -16.2625 -16.2549 -15.5878
   -15.5861 -15.2042 -15.1936 -13.2479 -13.2221 -12.9585 -12.9582 -11.3377
   -11.3367 -11.2639 -10.6579 -10.6486 -10.2204 -10.2187 -10.2175 -10.2137
    -9.7734  -9.3665  -9.3556  -9.3297  -8.8941  -8.8919  -8.8596  -8.8567
    -8.8563  -8.8534  -8.8300  -8.7177  -7.7227  -7.6503  -7.6474  -7.6368
    -7.2334  -7.2229  -7.2148  -6.7664  -6.6571  -6.5588  -6.5496  -5.0859
    -5.0451  -4.7135  -4.6949  -4.6170  -4.5821  -4.0806  -4.0644  -0.8493
    -0.8282  -0.6052  -0.6048   0.4199   0.4694   0.4746   0.5131   0.5314
     0.7552   1.3440   1.3730   2.0544

          k =-0.1667 0.0722 0.0000 ( 31908 PWs)   bands (ev):

   -21.2826 -21.2736 -20.5566 -20.5478 -19.5679 -19.1301 -19.1207 -17.5259
   -17.5245 -17.0989 -17.0909 -16.9309 -16.9277 -16.8432 -16.8321 -15.1865
   -15.1857 -14.2570 -14.2475 -13.5097 -13.5093 -13.2485 -13.2209 -11.4660
   -11.4584 -11.2598 -10.7698 -10.7685 -10.5546 -10.5454  -9.7701  -9.6877
    -9.6801  -9.3306  -9.2599  -9.2498  -9.2018  -9.2009  -9.1632  -9.1614
    -8.8299  -8.7344  -8.3830  -8.3803  -7.8512  -7.8500  -7.5852  -7.5799
    -7.3133  -6.7854  -6.7276  -6.7219  -6.6431  -6.5930  -6.5869  -5.0400
    -4.9983  -4.7748  -4.7562  -4.7083  -4.6535  -4.5643  -4.5277  -0.4485
    -0.4470  -0.1943  -0.1769   0.3179   0.3368   0.4397   0.5044   0.5458
     0.8752   1.4624   1.4901   1.6016

          k =-0.1667-0.1443 0.0000 ( 31784 PWs)   bands (ev):

   -21.0144 -21.0072 -21.0044 -20.9938 -19.5675 -18.1787 -18.1723 -18.1708
   -18.1626 -17.2925 -17.2908 -17.2827 -17.2776 -16.8441 -16.8332 -14.4019
   -14.3994 -14.3922 -14.3898 -13.2494 -13.2199 -12.8673 -12.8666 -12.8592
   -12.8567 -11.2556 -10.2437 -10.2357 -10.2346 -10.2249  -9.8763  -9.8762
    -9.8644  -9.8611  -9.7661  -9.3311  -8.9721  -8.9489  -8.9334  -8.9267
    -8.7786  -8.7031  -8.3268  -8.3245  -8.3238  -8.3199  -7.3036  -7.0049
    -7.0046  -7.0030  -6.9983  -6.7885  -6.6520  -5.7074  -5.6921  -5.6844
    -5.6611  -4.9447  -4.8893  -4.8806  -4.8624  -4.6069  -4.5777  -0.0833
    -0.0781  -0.0488  -0.0455   0.4023   0.5193   0.6472   1.0256   1.1360
     1.1437   1.1511   1.1677   1.3189

          k =-0.0833 0.0722 0.0000 ( 31951 PWs)   bands (ev):

   -21.6437 -20.9142 -20.6726 -19.9530 -19.5704 -19.4769 -18.7753 -18.5440
   -18.0858 -17.4235 -16.8380 -16.8336 -16.8171 -16.5575 -16.1872 -15.0900
   -14.6001 -14.5042 -13.9878 -13.8647 -13.2514 -13.2468 -12.1719 -12.1597
   -11.9395 -11.7280 -11.4656 -11.3056 -10.6776 -10.2929  -9.7040  -9.6842
    -9.6757  -9.6389  -9.3331  -9.3094  -9.1046  -8.8478  -8.7466  -8.7226
    -8.6998  -8.5902  -8.5138  -8.4283  -8.1103  -7.7058  -7.4744  -7.3277
    -7.2896  -7.1103  -6.7767  -6.7687  -6.3827  -6.3393  -6.0778  -5.9991
    -5.6820  -5.0648  -4.6774  -4.6201  -4.5487  -3.9711  -3.7244  -0.9896
    -0.6694  -0.4951   0.0073   0.1751   0.4217   0.4407   0.7340   0.9705
     1.3624   1.4982   1.7347   1.8854

     the Fermi energy is    -2.3069 ev

!    total energy              =    -351.28201500 Ry
     Harris-Foulkes estimate   =    -351.28201499 Ry
     estimated scf accuracy    <          5.0E-09 Ry

     The total energy is the sum of the following terms:

     one-electron contribution =   -4566.25652226 Ry
     hartree contribution      =    2303.21806337 Ry
     xc contribution           =    -112.23711157 Ry
     ewald contribution        =    2023.99637633 Ry
     smearing contrib. (-TS)   =      -0.00282088 Ry

     convergence has been achieved in   5 iterations

     Forces acting on atoms (cartesian axes, Ry/au):

     atom    1 type  1   force =     0.00059567   -0.00011969    0.00015432
     atom    2 type  1   force =     0.00000136   -0.00056848    0.00071514
     atom    3 type  1   force =    -0.00000342    0.00045381    0.00042900
     atom    4 type  1   force =    -0.00029068   -0.00004683   -0.00034763
     atom    5 type  1   force =    -0.00014744    0.00040565    0.00040714
     atom    6 type  1   force =    -0.00000102    0.00003502    0.00101585
     atom    7 type  1   force =     0.00000478   -0.00042346   -0.00070663
     atom    8 type  1   force =    -0.00010340    0.00071825    0.00024374
     atom    9 type  1   force =    -0.00000445   -0.00012574   -0.00011619
     atom   10 type  1   force =    -0.00037743   -0.00038012   -0.00016612
     atom   11 type  1   force =     0.00019887    0.00035522   -0.00039138
     atom   12 type  1   force =    -0.00000497    0.00013285    0.00059330
     atom   13 type  1   force =     0.00000091    0.00006588   -0.00040559
     atom   14 type  1   force =     0.00016111    0.00005513   -0.00001777
     atom   15 type  1   force =     0.00007447   -0.00023745    0.00010614
     atom   16 type  1   force =     0.00000967    0.00005708   -0.00089203
     atom   17 type  1   force =    -0.00059936   -0.00011061    0.00015363
     atom   18 type  1   force =     0.00038600   -0.00038767   -0.00016470
     atom   19 type  1   force =    -0.00019644    0.00035759   -0.00039219
     atom   20 type  1   force =     0.00029469   -0.00004537   -0.00034694
     atom   21 type  1   force =     0.00014555    0.00039754    0.00040611
     atom   22 type  1   force =    -0.00016269    0.00006375   -0.00001805
     atom   23 type  1   force =    -0.00008572   -0.00023923    0.00010621
     atom   24 type  1   force =     0.00010005    0.00071836    0.00024379
     atom   25 type  1   force =     0.00064170   -0.00020837   -0.00002973
     atom   26 type  1   force =    -0.00048417   -0.00095396    0.00005380
     atom   27 type  1   force =    -0.00004138    0.00068897    0.00005744
     atom   28 type  1   force =     0.00037965   -0.00095271   -0.00001844
     atom   29 type  1   force =    -0.00028087   -0.00106816    0.00006876
     atom   30 type  1   force =    -0.00062939    0.00031922    0.00005660
     atom   31 type  2   force =    -0.00022745    0.00014577   -0.00011971
     atom   32 type  2   force =     0.00029319    0.00036117   -0.00014176
     atom   33 type  2   force =     0.00029924   -0.00015108   -0.00012532
     atom   34 type  2   force =    -0.00024386    0.00036270   -0.00013054
     atom   35 type  2   force =     0.00026660    0.00044795   -0.00015395
     atom   36 type  2   force =     0.00003061   -0.00012295   -0.00012628

     Total force =     0.003836     Total SCF correction =     0.000156

     number of scf cycles    =  40
     number of bfgs steps    =  39

     energy   old            =    -351.2820125301 Ry
     energy   new            =    -351.2820149976 Ry

     CASE: energy  _new < energy  _old

     new trust radius        =       0.0022778712 bohr
     new conv_thr            =       0.0000000100 Ry


ATOMIC_POSITIONS (angstrom)
C        1.229992799   0.001780081  -0.176928773
C       -0.000007829   0.711937259  -0.178737818
C       -0.000004555   2.132226536  -0.189274106
C        1.230452155   2.841565354  -0.194804731
C        1.230345064   4.261708474  -0.189943048
C       -0.000013688   4.971907378  -0.179879497
C       -0.000008454   6.392671538  -0.170487924
C        1.230120657   7.102273602  -0.171798808
C        3.689993193   0.002680121  -0.182446014
C        2.460375127   0.712134846  -0.188313110
C        2.460402391   2.131824320  -0.199949460
C        3.689997109   2.841293149  -0.205978586
C        3.689992497   4.261383084  -0.199310956
C        2.460611401   4.971424086  -0.189559257
C        2.460435215   6.392193834  -0.175991923
C        3.689990872   7.103100223  -0.172886510
C        6.149994247   0.001776340  -0.176927417
C        4.919607103   0.712136200  -0.188314399
C        4.919586281   2.131821852  -0.199948141
C        6.149534856   2.841562804  -0.194804244
C        6.149635579   4.261708992  -0.189941010
C        4.919374513   4.971420974  -0.189558197
C        4.919557918   6.392194069  -0.175992018
C        6.149869260   7.102273610  -0.171798644
C        4.387292134   1.629043653   3.374525355
C        2.992705783   1.629325884   3.374383047
C        2.296324601   2.838120525   3.374479485
C        2.992227699   4.047216850   3.374228159
C        4.387769056   4.047173367   3.374088444
C        5.083896139   2.838144471   3.374487085
H        4.932098305   0.688417969   3.367759513
H        2.447912075   0.688446747   3.367797270
H        1.210201477   2.838222883   3.368542843
H        2.448043909   4.987307643   3.367351126
H        4.931986085   4.987160872   3.367388865
H        6.169709025   2.838080037   3.368543398



     Writing output data file batch_graph+benzene.save/
     NEW-OLD atomic charge density approx. for the potential

     negative rho (up, down):  1.990E-04 0.000E+00

     total cpu time spent up to now is      838.7 secs

     Self-consistent Calculation

     iteration #  1     ecut=    32.00 Ry     beta= 0.50
     Davidson diagonalization with overlap
     ethr =  1.00E-06,  avg # of iterations =  2.0

     Threshold (ethr) on eigenvalues was too large:
     Diagonalizing with lowered threshold

     Davidson diagonalization with overlap
     ethr =  8.67E-09,  avg # of iterations =  3.0

     negative rho (up, down):  1.988E-04 0.000E+00

     total cpu time spent up to now is      898.0 secs

     total energy              =    -351.28201463 Ry
     Harris-Foulkes estimate   =    -351.28201992 Ry
     estimated scf accuracy    <       0.00001240 Ry

     iteration #  2     ecut=    32.00 Ry     beta= 0.50
     Davidson diagonalization with overlap
     ethr =  9.84E-09,  avg # of iterations =  2.0

     negative rho (up, down):  1.988E-04 0.000E+00

     total cpu time spent up to now is      930.5 secs

     total energy              =    -351.28201664 Ry
     Harris-Foulkes estimate   =    -351.28201715 Ry
     estimated scf accuracy    <       0.00000186 Ry

     iteration #  3     ecut=    32.00 Ry     beta= 0.50
     Davidson diagonalization with overlap
     ethr =  1.48E-09,  avg # of iterations =  2.0

     negative rho (up, down):  1.988E-04 0.000E+00

     total cpu time spent up to now is      962.0 secs

     total energy              =    -351.28201700 Ry
     Harris-Foulkes estimate   =    -351.28201699 Ry
     estimated scf accuracy    <       0.00000034 Ry

     iteration #  4     ecut=    32.00 Ry     beta= 0.50
     Davidson diagonalization with overlap
     ethr =  2.67E-10,  avg # of iterations =  2.0

     negative rho (up, down):  1.988E-04 0.000E+00

     total cpu time spent up to now is      992.7 secs

     total energy              =    -351.28201705 Ry
     Harris-Foulkes estimate   =    -351.28201704 Ry
     estimated scf accuracy    <       0.00000004 Ry

     iteration #  5     ecut=    32.00 Ry     beta= 0.50
     Davidson diagonalization with overlap
     ethr =  2.78E-11,  avg # of iterations =  2.3

     negative rho (up, down):  1.987E-04 0.000E+00

     total cpu time spent up to now is     1022.9 secs

     total energy              =    -351.28201706 Ry
     Harris-Foulkes estimate   =    -351.28201706 Ry
     estimated scf accuracy    <       0.00000001 Ry

     iteration #  6     ecut=    32.00 Ry     beta= 0.50
     Davidson diagonalization with overlap
     ethr =  9.05E-12,  avg # of iterations =  2.3

     negative rho (up, down):  1.987E-04 0.000E+00

     total cpu time spent up to now is     1051.7 secs

     End of self-consistent calculation

          k = 0.0000 0.0000 0.0000 ( 31971 PWs)   bands (ev):

   -21.8576 -20.4028 -20.4006 -19.9253 -19.9223 -19.5705 -18.5181 -18.5143
   -18.5123 -18.5117 -16.8325 -16.8227 -16.6775 -15.5851 -15.0107 -15.0080
   -15.0071 -15.0066 -13.2829 -13.2450 -13.0349 -13.0336 -13.0327 -13.0311
   -12.8937 -12.8931 -11.3501 -10.2212 -10.2186  -9.9380  -9.8693  -9.8657
    -9.6542  -9.3352  -9.0391  -9.0369  -9.0308  -9.0299  -8.8940  -8.8539
    -8.8534  -8.7282  -8.6111  -8.2308  -8.1941  -7.6896  -7.6401  -7.5426
    -7.5396  -7.2729  -6.9057  -6.7693  -6.0993  -6.0989  -6.0745  -6.0703
    -5.5713  -5.5657  -4.7060  -4.6091  -4.5988  -2.3100  -2.3069  -2.3063
    -2.3046  -0.6021  -0.1465   0.3527   0.4642   0.6702   1.4171   1.4197
     1.4319   1.4426   1.4724   1.8654

          k = 0.0000 0.0722 0.0000 ( 31929 PWs)   bands (ev):

   -21.7659 -21.0352 -19.8360 -19.8328 -19.5997 -19.5668 -19.1249 -19.1231
   -17.7494 -17.7471 -17.5338 -16.8326 -16.8226 -15.8812 -15.8793 -14.5948
   -14.4795 -14.4790 -13.6330 -13.6316 -13.2814 -13.2453 -12.3726 -12.3716
   -12.3087 -12.3071 -11.5012 -11.3455 -10.6806 -10.6784 -10.0758 -10.0747
    -9.8280  -9.6496  -9.3358  -8.9752  -8.8033  -8.7127  -8.6092  -8.5428
    -8.5421  -8.3706  -8.3702  -8.2937  -8.1052  -7.6085  -7.5414  -7.3556
    -7.2079  -6.9021  -6.8953  -6.8165  -6.7311  -6.7107  -5.9304  -5.7622
    -5.2804  -5.2738  -5.2014  -4.6162  -4.6070  -3.3230  -3.3218  -1.3240
    -1.3220  -0.0088   0.0511   0.3621   0.4373   0.5401   0.5468   0.7992
     1.2293   1.6764   1.8342   2.2112

          k = 0.0000-0.1443 0.0000 ( 31940 PWs)   bands (ev):

   -21.4971 -21.4851 -19.5880 -19.5739 -19.5708 -19.5597 -19.5444 -18.6329
   -18.6252 -16.8625 -16.8537 -16.8498 -16.8496 -16.8246 -16.8183 -14.1025
   -14.1011 -14.0944 -14.0938 -13.2808 -13.2461 -13.1036 -13.1014 -11.4983
   -11.4957 -11.4891 -11.4880 -11.3411 -11.2747 -11.2727 -11.2712 -11.2708
    -9.6451  -9.5095  -9.4983  -9.3363  -8.7328  -8.6072  -8.5406  -8.5304
    -8.2326  -8.2325  -8.2295  -8.2285  -7.4575  -7.2561  -7.2526  -7.2397
    -7.1145  -6.9214  -6.9087  -6.8971  -6.7733  -6.2634  -6.2495  -6.2384
    -6.2075  -4.6749  -4.6396  -4.3324  -4.3265  -4.3011  -4.2888  -0.3939
    -0.3888  -0.3832  -0.3809   0.2239   0.3798   0.4516   0.8101   1.1713
     1.2305   1.4916   1.5118   1.9875

          k = 0.0833 0.0000 0.0000 ( 31951 PWs)   bands (ev):

   -21.7353 -20.7632 -20.2830 -20.2808 -19.5700 -19.3316 -19.3292 -18.8629
   -17.5071 -17.5048 -16.8342 -16.8321 -16.5729 -16.2233 -15.7368 -15.4841
   -14.8336 -14.5740 -14.5719 -14.0801 -13.2523 -13.2462 -12.3578 -12.1146
   -11.6615 -11.4417 -11.4393 -11.3098 -10.1315  -9.8951  -9.8937  -9.7905
    -9.7077  -9.4022  -9.3324  -9.1101  -9.1082  -8.9346  -8.9328  -8.7666
    -8.7225  -8.6964  -8.6073  -8.0896  -8.0564  -7.9972  -7.9944  -7.6154
    -7.3302  -6.9764  -6.9354  -6.7753  -6.7580  -6.4258  -6.0444  -5.8260
    -5.1715  -5.1638  -4.6461  -4.6240  -4.5066  -3.6067  -3.3330  -1.3514
    -1.0176  -0.6444   0.0218   0.0426   0.0658   0.4192   0.4646   0.8437
     1.3900   1.6343   2.0463   2.2338

          k = 0.0833 0.0722 0.0000 ( 31951 PWs)   bands (ev):

   -21.6437 -20.9142 -20.6726 -19.9530 -19.5702 -19.4768 -18.7753 -18.5440
   -18.0858 -17.4235 -16.8383 -16.8330 -16.8171 -16.5575 -16.1872 -15.0901
   -14.6003 -14.5039 -13.9876 -13.8648 -13.2511 -13.2470 -12.1721 -12.1597
   -11.9397 -11.7278 -11.4653 -11.3056 -10.6777 -10.2930  -9.7042  -9.6843
    -9.6754  -9.6387  -9.3330  -9.3097  -9.1049  -8.8479  -8.7474  -8.7224
    -8.6991  -8.5906  -8.5138  -8.4279  -8.1101  -7.7059  -7.4741  -7.3275
    -7.2900  -7.1102  -6.7766  -6.7688  -6.3829  -6.3393  -6.0779  -5.9989
    -5.6820  -5.0651  -4.6778  -4.6194  -4.5486  -3.9712  -3.7242  -0.9899
    -0.6692  -0.4954   0.0077   0.1754   0.4221   0.4402   0.7338   0.9707
     1.3627   1.4986   1.7348   1.8858

          k = 0.0833-0.1443 0.0000 ( 31876 PWs)   bands (ev):

   -21.3753 -21.3634 -20.4075 -20.3958 -19.5691 -18.5201 -18.5180 -18.5108
   -18.5076 -17.6110 -17.6035 -16.8342 -16.8328 -16.2596 -16.2558 -15.2015
   -15.2000 -13.2504 -13.2482 -13.0378 -13.0330 -13.0310 -13.0288 -12.9580
[...]

     CASE: energy  _new < energy  _old

     new trust radius        =       0.0004160890 bohr
     new conv_thr            =       0.0000000100 Ry


ATOMIC_POSITIONS (angstrom)
C        1.230203300   0.001736219  -0.176003986
C       -0.000040702   0.711709596  -0.176572438
C       -0.000038566   2.132376453  -0.187390627
C        1.230353638   2.841589573  -0.193568339
C        1.230312691   4.261817146  -0.186153629
C       -0.000044036   4.971598972  -0.175609256
C       -0.000033871   6.392409728  -0.168270581
C        1.230052833   7.102504892  -0.170057943
C        3.689958387   0.002064282  -0.186689466
C        2.460364977   0.711918430  -0.190704516
C        2.460479197   2.131955967  -0.201420616
C        3.689965793   2.841564484  -0.206130244
C        3.689956809   4.261555537  -0.199102159
C        2.460591996   4.971492095  -0.188054658
C        2.460346171   6.392089433  -0.175927453
C        3.689963364   7.102900353  -0.176092896
C        6.149726293   0.001735952  -0.176005127
C        4.919563719   0.711917231  -0.190705508
C        4.919440491   2.131955130  -0.201421236
C        6.149564299   2.841591015  -0.193569657
C        6.149608730   4.261818558  -0.186155672
C        4.919332159   4.971494270  -0.188057005
C        4.919573315   6.392091343  -0.175929054
C        6.149869485   7.102504065  -0.170059533
C        4.387372567   1.628888623   3.374106771
C        2.992718538   1.628923110   3.374092175
C        2.296740152   2.838351383   3.374272308
C        2.992454366   4.047085858   3.373757222
C        4.387761953   4.047035920   3.373759645
C        5.083394381   2.838269880   3.374288963
H        4.931968089   0.688456969   3.365755504
H        2.448095816   0.688515051   3.365755836
H        1.210953822   2.838290071   3.366781301
H        2.448168145   4.987698744   3.365129672
H        4.932112321   4.987612171   3.365150890
H        6.169189379   2.838141122   3.366801314



     Writing output data file batch_graph+benzene.save/
     NEW-OLD atomic charge density approx. for the potential

     negative rho (up, down):  1.988E-04 0.000E+00

     total cpu time spent up to now is     4731.8 secs

     Self-consistent Calculation

     iteration #  1     ecut=    32.00 Ry     beta= 0.50
     Davidson diagonalization with overlap
     ethr =  1.00E-06,  avg # of iterations =  2.0

     Threshold (ethr) on eigenvalues was too large:
     Diagonalizing with lowered threshold

     Davidson diagonalization with overlap
     ethr =  1.27E-10,  avg # of iterations =  3.8

     negative rho (up, down):  1.988E-04 0.000E+00

     total cpu time spent up to now is     4797.8 secs

     total energy              =    -351.28203751 Ry
     Harris-Foulkes estimate   =    -351.28203762 Ry
     estimated scf accuracy    <       0.00000028 Ry

     iteration #  2     ecut=    32.00 Ry     beta= 0.50
     Davidson diagonalization with overlap
     ethr =  2.24E-10,  avg # of iterations =  2.0

     negative rho (up, down):  1.988E-04 0.000E+00

     total cpu time spent up to now is     4829.3 secs

     total energy              =    -351.28203755 Ry
     Harris-Foulkes estimate   =    -351.28203755 Ry
     estimated scf accuracy    <       0.00000003 Ry

     iteration #  3     ecut=    32.00 Ry     beta= 0.50
     Davidson diagonalization with overlap
     ethr =  2.34E-11,  avg # of iterations =  2.2

     negative rho (up, down):  1.988E-04 0.000E+00

     total cpu time spent up to now is     4861.1 secs

     total energy              =    -351.28203755 Ry
     Harris-Foulkes estimate   =    -351.28203756 Ry
     estimated scf accuracy    <       0.00000001 Ry

     iteration #  4     ecut=    32.00 Ry     beta= 0.50
     Davidson diagonalization with overlap
     ethr =  8.83E-12,  avg # of iterations =  2.2

     negative rho (up, down):  1.988E-04 0.000E+00

     total cpu time spent up to now is     4891.0 secs

     End of self-consistent calculation

          k = 0.0000 0.0000 0.0000 ( 31971 PWs)   bands (ev):

   -21.8589 -20.4032 -20.4027 -19.9266 -19.9236 -19.5718 -18.5185 -18.5159
   -18.5145 -18.5127 -16.8334 -16.8227 -16.6787 -15.5865 -15.0118 -15.0090
   -15.0086 -15.0081 -13.2829 -13.2449 -13.0354 -13.0347 -13.0338 -13.0335
   -12.8950 -12.8944 -11.3505 -10.2224 -10.2198  -9.9392  -9.8696  -9.8681
    -9.6534  -9.3357  -9.0394  -9.0386  -9.0324  -9.0317  -8.8953  -8.8552
    -8.8547  -8.7293  -8.6101  -8.2320  -8.1953  -7.6907  -7.6412  -7.5426
    -7.5422  -7.2740  -6.9030  -6.7709  -6.0999  -6.0999  -6.0760  -6.0721
    -5.5726  -5.5671  -4.7076  -4.6088  -4.5991  -2.3112  -2.3082  -2.3077
    -2.3062  -0.6037  -0.1461   0.3544   0.4648   0.6697   1.4146   1.4188
     1.4315   1.4407   1.4728   1.8657

          k = 0.0000 0.0722 0.0000 ( 31929 PWs)   bands (ev):

   -21.7671 -21.0365 -19.8373 -19.8341 -19.6010 -19.5681 -19.1262 -19.1244
   -17.7507 -17.7484 -17.5350 -16.8335 -16.8227 -15.8825 -15.8806 -14.5961
   -14.4808 -14.4804 -13.6342 -13.6329 -13.2814 -13.2452 -12.3739 -12.3729
   -12.3100 -12.3084 -11.5026 -11.3459 -10.6818 -10.6796 -10.0771 -10.0760
    -9.8293  -9.6487  -9.3363  -8.9766  -8.8046  -8.7136  -8.6082  -8.5441
    -8.5436  -8.3718  -8.3715  -8.2952  -8.1065  -7.6094  -7.5427  -7.3572
    -7.2087  -6.8995  -6.8966  -6.8182  -6.7322  -6.7118  -5.9318  -5.7634
    -5.2817  -5.2751  -5.2028  -4.6167  -4.6067  -3.3244  -3.3231  -1.3254
    -1.3233  -0.0084   0.0495   0.3637   0.4377   0.5387   0.5454   0.7986
     1.2303   1.6771   1.8338   2.2113

          k = 0.0000-0.1443 0.0000 ( 31940 PWs)   bands (ev):

   -21.4986 -21.4861 -19.5892 -19.5752 -19.5727 -19.5604 -19.5458 -18.6332
   -18.6275 -16.8631 -16.8546 -16.8517 -16.8512 -16.8254 -16.8186 -14.1039
   -14.1027 -14.0957 -14.0949 -13.2807 -13.2461 -13.1042 -13.1034 -11.4981
   -11.4960 -11.4918 -11.4903 -11.3415 -11.2761 -11.2744 -11.2724 -11.2716
    -9.6442  -9.5111  -9.4994  -9.3368  -8.7337  -8.6061  -8.5414  -8.5322
    -8.2349  -8.2348  -8.2298  -8.2289  -7.4581  -7.2581  -7.2541  -7.2404
    -7.1160  -6.9240  -6.9087  -6.8945  -6.7747  -6.2630  -6.2523  -6.2390
    -6.2094  -4.6753  -4.6394  -4.3328  -4.3282  -4.3032  -4.2898  -0.3947
    -0.3900  -0.3853  -0.3824   0.2242   0.3812   0.4520   0.8110   1.1708
     1.2304   1.4891   1.5116   1.9880

          k = 0.0833 0.0000 0.0000 ( 31951 PWs)   bands (ev):

   -21.7366 -20.7645 -20.2834 -20.2829 -19.5712 -19.3322 -19.3312 -18.8642
   -17.5075 -17.5070 -16.8342 -16.8330 -16.5741 -16.2246 -15.7380 -15.4855
   -14.8351 -14.5744 -14.5741 -14.0813 -13.2523 -13.2462 -12.3591 -12.1159
   -11.6626 -11.4420 -11.4417 -11.3102 -10.1330  -9.8964  -9.8951  -9.7918
    -9.7066  -9.4035  -9.3330  -9.1106  -9.1103  -8.9351  -8.9349  -8.7662
    -8.7235  -8.6976  -8.6078  -8.0908  -8.0577  -7.9972  -7.9969  -7.6168
    -7.3310  -6.9777  -6.9365  -6.7728  -6.7594  -6.4272  -6.0456  -5.8274
    -5.1722  -5.1655  -4.6471  -4.6238  -4.5073  -3.6082  -3.3342  -1.3529
    -1.0188  -0.6459   0.0203   0.0419   0.0660   0.4206   0.4648   0.8431
     1.3901   1.6349   2.0478   2.2310

          k = 0.0833 0.0722 0.0000 ( 31951 PWs)   bands (ev):

   -21.6450 -20.9155 -20.6739 -19.9543 -19.5715 -19.4781 -18.7766 -18.5453
   -18.0871 -17.4248 -16.8387 -16.8337 -16.8182 -16.5588 -16.1885 -15.0914
   -14.6015 -14.5052 -13.9890 -13.8661 -13.2511 -13.2470 -12.1734 -12.1610
   -11.9410 -11.7291 -11.4666 -11.3060 -10.6790 -10.2942  -9.7031  -9.6865
    -9.6759  -9.6399  -9.3336  -9.3110  -9.1062  -8.8493  -8.7465  -8.7237
    -8.6998  -8.5919  -8.5147  -8.4294  -8.1115  -7.7071  -7.4754  -7.3284
    -7.2912  -7.1113  -6.7775  -6.7669  -6.3845  -6.3403  -6.0791  -6.0003
    -5.6832  -5.0664  -4.6778  -4.6198  -4.5497  -3.9725  -3.7256  -0.9911
    -0.6706  -0.4967   0.0062   0.1758   0.4227   0.4417   0.7324   0.9701
     1.3635   1.4991   1.7333   1.8861

          k = 0.0833-0.1443 0.0000 ( 31876 PWs)   bands (ev):

   -21.3768 -21.3644 -20.4091 -20.3969 -19.5704 -18.5218 -18.5182 -18.5130
   -18.5088 -17.6113 -17.6058 -16.8342 -16.8337 -16.2618 -16.2563 -15.2023
   -15.2016 -13.2504 -13.2482 -13.0378 -13.0336 -13.0332 -13.0311 -12.9599
   -12.9561 -11.3435 -11.3368 -11.3015 -10.6547 -10.6520  -9.8739  -9.8690
    -9.6984  -9.3659  -9.3572  -9.3341  -9.0417  -9.0371  -9.0332  -9.0318
    -8.7378  -8.7323  -8.2146  -8.2113  -7.5431  -7.5372  -7.3069  -7.2221
    -7.2128  -6.7877  -6.7692  -6.5613  -6.5562  -6.1019  -6.0923  -6.0819
    -6.0734  -5.0794  -5.0533  -4.6271  -4.6039  -4.0784  -4.0646  -0.8487
    -0.8371   0.3626   0.4117   0.4301   0.5175   0.5286   1.0008   1.3442
     1.3921   1.4225   1.4272   1.4358

          k =-0.1667 0.0000 0.0000 ( 31854 PWs)   bands (ev):

   -21.3748 -21.3664 -19.9292 -19.9287 -19.9217 -19.9206 -19.5674 -17.6088
   -17.6084 -16.8459 -16.8330 -16.6778 -16.6776 -16.2639 -16.2563 -15.5886
   -15.5882 -15.2042 -15.1954 -13.2480 -13.2219 -12.9599 -12.9599 -11.3382
   -11.3382 -11.2643 -10.6597 -10.6499 -10.2206 -10.2192 -10.2186 -10.2165
    -9.7724  -9.3677  -9.3571  -9.3302  -8.8941  -8.8940  -8.8606  -8.8596
    -8.8565  -8.8553  -8.8295  -8.7179  -7.7246  -7.6508  -7.6491  -7.6380
    -7.2338  -7.2254  -7.2157  -6.7671  -6.6556  -6.5585  -6.5515  -5.0862
    -5.0470  -4.7138  -4.6960  -4.6179  -4.5825  -4.0826  -4.0654  -0.8494
    -0.8302  -0.6076  -0.6056   0.4193   0.4702   0.4760   0.5123   0.5305
     0.7553   1.3433   1.3730   2.0563

          k =-0.1667 0.0722 0.0000 ( 31908 PWs)   bands (ev):

   -21.2836 -21.2752 -20.5576 -20.5493 -19.5689 -19.1310 -19.1223 -17.5267
   -17.5263 -17.0999 -17.0925 -16.9314 -16.9298 -16.8437 -16.8323 -15.1876
   -15.1874 -14.2574 -14.2493 -13.5110 -13.5108 -13.2487 -13.2207 -11.4662
   -11.4602 -11.2602 -10.7703 -10.7702 -10.5564 -10.5466  -9.7690  -9.6896
    -9.6813  -9.3311  -9.2610  -9.2514  -9.2038  -9.2015  -9.1635  -9.1634
    -8.8294  -8.7346  -8.3844  -8.3813  -7.8520  -7.8517  -7.5877  -7.5806
    -7.3139  -6.7863  -6.7285  -6.7230  -6.6418  -6.5930  -6.5889  -5.0403
    -5.0002  -4.7752  -4.7576  -4.7099  -4.6551  -4.5647  -4.5278  -0.4508
    -0.4477  -0.1948  -0.1788   0.3157   0.3360   0.4398   0.5057   0.5472
     0.8752   1.4617   1.4901   1.6032

          k =-0.1667-0.1443 0.0000 ( 31784 PWs)   bands (ev):

   -21.0155 -21.0094 -21.0054 -20.9947 -19.5686 -18.1789 -18.1741 -18.1715
   -18.1650 -17.2947 -17.2924 -17.2826 -17.2792 -16.8446 -16.8334 -14.4024
   -14.4003 -14.3941 -14.3921 -13.2496 -13.2197 -12.8675 -12.8671 -12.8599
   -12.8596 -11.2560 -10.2450 -10.2372 -10.2371 -10.2260  -9.8785  -9.8770
    -9.8645  -9.8626  -9.7650  -9.3316  -8.9735  -8.9510  -8.9345  -8.9278
    -8.7779  -8.7031  -8.3278  -8.3273  -8.3246  -8.3210  -7.3040  -7.0065
    -7.0056  -7.0034  -7.0000  -6.7892  -6.6505  -5.7083  -5.6928  -5.6865
    -5.6630  -4.9444  -4.8915  -4.8818  -4.8638  -4.6068  -4.5780  -0.0848
    -0.0779  -0.0520  -0.0473   0.4027   0.5205   0.6485   1.0260   1.1344
     1.1436   1.1483   1.1669   1.3202

          k =-0.0833 0.0722 0.0000 ( 31951 PWs)   bands (ev):

   -21.6450 -20.9155 -20.6739 -19.9543 -19.5715 -19.4781 -18.7766 -18.5453
   -18.0871 -17.4248 -16.8387 -16.8337 -16.8182 -16.5588 -16.1885 -15.0914
   -14.6015 -14.5052 -13.9890 -13.8661 -13.2511 -13.2470 -12.1734 -12.1610
   -11.9409 -11.7291 -11.4666 -11.3060 -10.6790 -10.2942  -9.7031  -9.6865
    -9.6759  -9.6399  -9.3336  -9.3110  -9.1062  -8.8493  -8.7465  -8.7237
    -8.6998  -8.5919  -8.5147  -8.4294  -8.1115  -7.7071  -7.4754  -7.3284
    -7.2912  -7.1113  -6.7775  -6.7669  -6.3845  -6.3403  -6.0791  -6.0002
    -5.6832  -5.0664  -4.6778  -4.6197  -4.5497  -3.9725  -3.7256  -0.9911
    -0.6706  -0.4967   0.0062   0.1758   0.4227   0.4417   0.7324   0.9701
     1.3635   1.4991   1.7333   1.8861

     the Fermi energy is    -2.3083 ev

!    total energy              =    -351.28203755 Ry
     Harris-Foulkes estimate   =    -351.28203756 Ry
     estimated scf accuracy    <          2.2E-09 Ry

     The total energy is the sum of the following terms:

     one-electron contribution =   -4567.44267510 Ry
     hartree contribution      =    2303.80695614 Ry
     xc contribution           =    -112.23783096 Ry
     ewald contribution        =    2024.59433321 Ry
     smearing contrib. (-TS)   =      -0.00282084 Ry

     convergence has been achieved in   4 iterations

     Forces acting on atoms (cartesian axes, Ry/au):

     atom    1 type  1   force =    -0.00000110    0.00000339    0.00001925
     atom    2 type  1   force =     0.00000812   -0.00001865    0.00002750
     atom    3 type  1   force =    -0.00001078   -0.00000476   -0.00003744
     atom    4 type  1   force =     0.00002019   -0.00000062    0.00000789
     atom    5 type  1   force =    -0.00002871    0.00000140    0.00002235
     atom    6 type  1   force =     0.00001283   -0.00001592   -0.00002084
     atom    7 type  1   force =    -0.00001258   -0.00001955   -0.00001888
     atom    8 type  1   force =    -0.00000525    0.00001882    0.00001363
     atom    9 type  1   force =     0.00000696    0.00008218    0.00001713
     atom   10 type  1   force =    -0.00002471    0.00001785    0.00000613
     atom   11 type  1   force =    -0.00000951    0.00000981    0.00000470
     atom   12 type  1   force =    -0.00001412    0.00003472   -0.00000117
     atom   13 type  1   force =     0.00001691    0.00001277   -0.00003518
     atom   14 type  1   force =     0.00001190    0.00001579   -0.00001526
     atom   15 type  1   force =     0.00001098    0.00002285   -0.00001826
     atom   16 type  1   force =    -0.00001249    0.00003212   -0.00000653
     atom   17 type  1   force =    -0.00001400   -0.00000051    0.00001932
     atom   18 type  1   force =     0.00001058    0.00001590    0.00000633
     atom   19 type  1   force =     0.00002360    0.00000749    0.00000445
     atom   20 type  1   force =    -0.00001056   -0.00000386    0.00000780
     atom   21 type  1   force =     0.00001885   -0.00000112    0.00002226
     atom   22 type  1   force =    -0.00002684    0.00001260   -0.00001504
     atom   23 type  1   force =     0.00000212    0.00001934   -0.00001820
     atom   24 type  1   force =     0.00001597    0.00001861    0.00001399
     atom   25 type  1   force =    -0.00000823   -0.00003467   -0.00001317
     atom   26 type  1   force =    -0.00000054   -0.00001058   -0.00000614
     atom   27 type  1   force =     0.00001391   -0.00003300    0.00000162
     atom   28 type  1   force =    -0.00000701   -0.00002910    0.00000800
     atom   29 type  1   force =     0.00000479   -0.00000805    0.00001301
     atom   30 type  1   force =     0.00002240   -0.00002548   -0.00000060
     atom   31 type  2   force =    -0.00000916   -0.00002246    0.00000071
     atom   32 type  2   force =     0.00000231   -0.00002774   -0.00000186
     atom   33 type  2   force =    -0.00000208   -0.00002334   -0.00000382
     atom   34 type  2   force =     0.00000564   -0.00001319    0.00000048
     atom   35 type  2   force =    -0.00000471   -0.00001235   -0.00000125
     atom   36 type  2   force =    -0.00000567   -0.00002071   -0.00000291

     Total force =     0.000186     Total SCF correction =     0.000099
     SCF correction compared to forces is large: reduce conv_thr to get better values

     bfgs converged in  61 scf cycles and  59 bfgs steps
     (criteria: energy <  1.0E-05 Ry, force <  1.0E-04 Ry/Bohr)

     End of BFGS Geometry Optimization

     Final energy   =    -351.2820375543 Ry
Begin final coordinates

ATOMIC_POSITIONS (angstrom)
C        1.230203300   0.001736219  -0.176003986
C       -0.000040702   0.711709596  -0.176572438
C       -0.000038566   2.132376453  -0.187390627
C        1.230353638   2.841589573  -0.193568339
C        1.230312691   4.261817146  -0.186153629
C       -0.000044036   4.971598972  -0.175609256
C       -0.000033871   6.392409728  -0.168270581
C        1.230052833   7.102504892  -0.170057943
C        3.689958387   0.002064282  -0.186689466
C        2.460364977   0.711918430  -0.190704516
C        2.460479197   2.131955967  -0.201420616
C        3.689965793   2.841564484  -0.206130244
C        3.689956809   4.261555537  -0.199102159
C        2.460591996   4.971492095  -0.188054658
C        2.460346171   6.392089433  -0.175927453
C        3.689963364   7.102900353  -0.176092896
C        6.149726293   0.001735952  -0.176005127
C        4.919563719   0.711917231  -0.190705508
C        4.919440491   2.131955130  -0.201421236
C        6.149564299   2.841591015  -0.193569657
C        6.149608730   4.261818558  -0.186155672
C        4.919332159   4.971494270  -0.188057005
C        4.919573315   6.392091343  -0.175929054
C        6.149869485   7.102504065  -0.170059533
C        4.387372567   1.628888623   3.374106771
C        2.992718538   1.628923110   3.374092175
C        2.296740152   2.838351383   3.374272308
C        2.992454366   4.047085858   3.373757222
C        4.387761953   4.047035920   3.373759645
C        5.083394381   2.838269880   3.374288963
H        4.931968089   0.688456969   3.365755504
H        2.448095816   0.688515051   3.365755836
H        1.210953822   2.838290071   3.366781301
H        2.448168145   4.987698744   3.365129672
H        4.932112321   4.987612171   3.365150890
H        6.169189379   2.838141122   3.366801314
End final coordinates



     Writing output data file batch_graph+benzene.save/

     init_run     :     22.01s CPU     22.36s WALL (       1 calls)
     electrons    :   4430.80s CPU   4497.62s WALL (      25 calls)
     update_pot   :     85.28s CPU     87.28s WALL (      24 calls)
     forces       :    272.57s CPU    275.20s WALL (      25 calls)

     Called by init_run:
     wfcinit      :     17.66s CPU     17.81s WALL (       1 calls)
     potinit      :      2.19s CPU      2.32s WALL (       1 calls)
     hinit0       :      1.21s CPU      1.22s WALL (       1 calls)

     Called by electrons:
     c_bands      :   3655.47s CPU   3697.35s WALL (     144 calls)
     sum_band     :    491.15s CPU    501.76s WALL (     144 calls)
     v_of_rho     :    243.89s CPU    255.09s WALL (     144 calls)
     newd         :     86.21s CPU     91.19s WALL (     144 calls)
     mix_rho      :      4.34s CPU      4.45s WALL (     144 calls)

     Called by c_bands:
     init_us_2    :     15.00s CPU     15.08s WALL (    3140 calls)
     cegterg      :   3613.01s CPU   3653.56s WALL (    1440 calls)

     Called by sum_band:
     sum_band:bec :      0.56s CPU      0.56s WALL (    1440 calls)
     addusdens    :     73.00s CPU     78.12s WALL (     144 calls)

     Called by *egterg:
     h_psi        :   1890.08s CPU   1921.39s WALL (    5027 calls)
     s_psi        :    575.75s CPU    577.28s WALL (    5027 calls)
     g_psi        :      2.81s CPU      2.84s WALL (    3577 calls)
     cdiaghg      :    114.31s CPU    114.60s WALL (    4527 calls)

     Called by h_psi:
     h_psi:pot    :   1885.96s CPU   1913.36s WALL (    5027 calls)
     h_psi:calbec :    608.90s CPU    610.88s WALL (    5027 calls)
     vloc_psi     :    704.52s CPU    728.57s WALL (    5027 calls)
     add_vuspsi   :    572.51s CPU    573.89s WALL (    5027 calls)

     General routines
     calbec       :   1030.80s CPU   1034.03s WALL (    7467 calls)
     fft          :    159.33s CPU    165.01s WALL (    9121 calls)
     ffts         :      0.75s CPU      0.78s WALL (     288 calls)
     fftw         :    793.41s CPU    820.81s WALL (  647538 calls)
     interpolate  :      2.81s CPU      2.92s WALL (     144 calls)

     Parallel routines
     fft_scatt_xy :     87.62s CPU     91.20s WALL (  656947 calls)
     fft_scatt_yz :    137.95s CPU    148.82s WALL (  656947 calls)

     PWSCF        :      1h20m CPU      1h21m WALL


   This run was terminated on:   9:56:56   5Jan2021            

=------------------------------------------------------------------------------=
   JOB DONE.
=------------------------------------------------------------------------------=
