
     Program PWSCF v.6.4.1 starts on  5Jan2021 at 11:16:56 

     This program is part of the open-source Quantum ESPRESSO suite
     for quantum simulation of materials; please cite
         "P. Giannozzi et al., J. Phys.:Condens. Matter 21 395502 (2009);
         "P. Giannozzi et al., J. Phys.:Condens. Matter 29 465901 (2017);
          URL http://www.quantum-espresso.org", 
     in publications or presentations arising from this work. More details at
     http://www.quantum-espresso.org/quote

     Parallel version (MPI), running on     8 processors

     MPI processes distributed on     1 nodes
     R & G space division:  proc/nbgrp/npool/nimage =       8
     Waiting for input...
     Reading input from standard input

     Current dimensions of program PWSCF are:
     Max number of different atomic species (ntypx) = 10
     Max number of k-points (npk) =  40000
     Max angular momentum in pseudopotentials (lmaxx) =  3

     IMPORTANT: XC functional enforced from input :
     Exchange-correlation      = VDW-DF ( 1  4  4  0 1 0)
     Any further DFT definition will be discarded
     Please, verify this is what you really want

               file C.pbe-rrkjus.UPF: wavefunction(s)  2S 2P renormalized

     Subspace diagonalization in iterative solution of the eigenvalue problem:
     a serial algorithm will be used

     Message from routine setup:
     DEPRECATED: symmetry with ibrav=0, use correct ibrav instead

     Parallelization info
     --------------------
     sticks:   dense  smooth     PW     G-vecs:    dense   smooth      PW
     Min         714     285     79               126154    31889    4649
     Max         715     286     80               126163    31900    4658
     Sum        5713    2283    637              1009261   255153   37237



     bravais-lattice index     =            0
     lattice parameter (alat)  =       4.6487  a.u.
     unit-cell volume          =   10440.3175 (a.u.)^3
     number of atoms/cell      =           36
     number of atomic types    =            2
     number of electrons       =       126.00
     number of Kohn-Sham states=           76
     kinetic-energy cutoff     =      32.0000  Ry
     charge density cutoff     =     320.0000  Ry
     convergence threshold     =      1.0E-06
     mixing beta               =       0.5000
     number of iterations used =            8  plain     mixing
     Exchange-correlation      = VDW-DF ( 1  4  4  0 1 0)
     nstep                     =          200


     celldm(1)=   4.648726  celldm(2)=   0.000000  celldm(3)=   0.000000
     celldm(4)=   0.000000  celldm(5)=   0.000000  celldm(6)=   0.000000

     crystal axes: (cart. coord. in units of alat)
               a(1) = (   3.000000   0.000000   0.000000 )  
               a(2) = (   0.000000   3.464102   0.000000 )  
               a(3) = (   0.000000   0.000000  10.000000 )  

     reciprocal axes: (cart. coord. in units 2 pi/alat)
               b(1) = (  0.333333  0.000000  0.000000 )  
               b(2) = (  0.000000  0.288675  0.000000 )  
               b(3) = (  0.000000  0.000000  0.100000 )  


     PseudoPot. # 1 for C  read from file:
     ../../../pseudopotentials/C.pbe-rrkjus.UPF
     MD5 check sum: 00fb224312de0c5b6853bd333518df6f
     Pseudo is Ultrasoft, Zval =  4.0
     Generated by new atomic code, or converted to UPF format
     Using radial grid of  627 points,  4 beta functions with: 
                l(1) =   0
                l(2) =   0
                l(3) =   1
                l(4) =   1
     Q(r) pseudized with 0 coefficients 


     PseudoPot. # 2 for H  read from file:
     ../../../pseudopotentials/H.pbe-rrkjus_psl.1.0.0.UPF
     MD5 check sum: 3f4114867bd07edc7f1424d066fc1888
     Pseudo is Ultrasoft, Zval =  1.0
     Generated using "atomic" code by A. Dal Corso v.6.3MaX
     Using radial grid of  929 points,  2 beta functions with: 
                l(1) =   0
                l(2) =   0
     Q(r) pseudized with 0 coefficients 


     vdW kernel table read from file vdW_kernel_table
     MD5 check sum: 48e77a2e26edf626eeb0eaa751ad5cac

     atomic species   valence    mass     pseudopotential
        C              4.00    12.01070     C ( 1.00)
        H              1.00     1.00790     H ( 1.00)

      2 Sym. Ops. (no inversion) found ( 1 have fractional translation)



   Cartesian axes

     site n.     atom                  positions (alat units)
         1           C   tau(   1) = (   0.5000000   0.0000000   0.0000000  )
         2           C   tau(   2) = (   0.0000000   0.2886752   0.0000000  )
         3           C   tau(   3) = (   0.0000000   0.8660255   0.0000000  )
         4           C   tau(   4) = (   0.5000000   1.1547006   0.0000000  )
         5           C   tau(   5) = (   0.5000000   1.7320509   0.0000000  )
         6           C   tau(   6) = (   0.0000000   2.0207261   0.0000000  )
         7           C   tau(   7) = (   0.0000000   2.5980764   0.0000000  )
         8           C   tau(   8) = (   0.5000000   2.8867516   0.0000000  )
         9           C   tau(   9) = (   1.5000001   0.0000000   0.0000000  )
        10           C   tau(  10) = (   1.0000001   0.2886752   0.0000000  )
        11           C   tau(  11) = (   1.0000001   0.8660255   0.0000000  )
        12           C   tau(  12) = (   1.5000001   1.1547006   0.0000000  )
        13           C   tau(  13) = (   1.5000001   1.7320509   0.0000000  )
        14           C   tau(  14) = (   1.0000001   2.0207261   0.0000000  )
        15           C   tau(  15) = (   1.0000001   2.5980764   0.0000000  )
        16           C   tau(  16) = (   1.5000001   2.8867516   0.0000000  )
        17           C   tau(  17) = (   2.5000002   0.0000000   0.0000000  )
        18           C   tau(  18) = (   2.0000002   0.2886752   0.0000000  )
        19           C   tau(  19) = (   2.0000002   0.8660255   0.0000000  )
        20           C   tau(  20) = (   2.5000002   1.1547006   0.0000000  )
        21           C   tau(  21) = (   2.5000002   1.7320509   0.0000000  )
        22           C   tau(  22) = (   2.0000002   2.0207261   0.0000000  )
        23           C   tau(  23) = (   2.0000002   2.5980764   0.0000000  )
        24           C   tau(  24) = (   2.5000002   2.8867516   0.0000000  )
        25           C   tau(  25) = (   1.7835084   0.9523250   1.2195123  )
        26           C   tau(  26) = (   1.2165702   0.9523678   1.2195123  )
        27           C   tau(  27) = (   0.9330598   1.4434223   1.2195123  )
        28           C   tau(  28) = (   1.2164918   1.9344266   1.2195123  )
        29           C   tau(  29) = (   1.7834300   1.9343837   1.2195123  )
        30           C   tau(  30) = (   2.0669404   1.4433293   1.2195123  )
        31           H   tau(  31) = (   2.0052050   0.5683353   1.2195123  )
        32           H   tau(  32) = (   0.9948515   0.5684624   1.2195123  )
        33           H   tau(  33) = (   0.4897286   1.4433609   1.2195123  )
        34           H   tau(  34) = (   0.9947952   2.3184163   1.2195123  )
        35           H   tau(  35) = (   2.0051488   2.3182892   1.2195123  )
        36           H   tau(  36) = (   2.5102717   1.4433907   1.2195123  )

     number of k points=    10  gaussian smearing, width (Ry)=  0.0200
                       cart. coord. in units 2pi/alat
        k(    1) = (   0.0000000   0.0000000   0.0000000), wk =   0.1250000
        k(    2) = (   0.0000000   0.0721688   0.0000000), wk =   0.2500000
        k(    3) = (   0.0000000  -0.1443376   0.0000000), wk =   0.1250000
        k(    4) = (   0.0833333   0.0000000   0.0000000), wk =   0.2500000
        k(    5) = (   0.0833333   0.0721688   0.0000000), wk =   0.2500000
        k(    6) = (   0.0833333  -0.1443376   0.0000000), wk =   0.2500000
        k(    7) = (  -0.1666667   0.0000000   0.0000000), wk =   0.1250000
        k(    8) = (  -0.1666667   0.0721688   0.0000000), wk =   0.2500000
        k(    9) = (  -0.1666667  -0.1443376   0.0000000), wk =   0.1250000
        k(   10) = (  -0.0833333   0.0721688   0.0000000), wk =   0.2500000

     Dense  grid:  1009261 G-vectors     FFT dimensions: (  80,  96, 270)

     Smooth grid:   255153 G-vectors     FFT dimensions: (  54,  60, 180)

     Estimated max dynamical RAM per process >     428.17 MB

     Estimated total dynamical RAM >       3.35 GB

     Initial potential from superposition of free atoms

     starting charge  125.99836, renormalised to  126.00000

     negative rho (up, down):  2.465E-04 0.000E+00


     %%%%%%%%%%%%%%%%%%%%%%%%%%%%%%%%%%%%%%%%%%%%%%%%%%%%%%%%%%%%%%%%%%%%%%%%
     %                                                                      %
     % You are using vdW-DF, which was implemented by the Thonhauser group. %
     % Please cite the following two papers that made this development      %
     % possible and the two reviews that describe the various versions:     %
     %                                                                      %
     %   T. Thonhauser et al., PRL 115, 136402 (2015).                      %
     %   T. Thonhauser et al., PRB 76, 125112 (2007).                       %
     %   K. Berland et al., Rep. Prog. Phys. 78, 066501 (2015).             %
     %   D.C. Langreth et al., J. Phys.: Condens. Matter 21, 084203 (2009). %
     %                                                                      %
     %                                                                      %
     % If you are calculating the stress with vdW-DF, please also cite:     %
     %                                                                      %
     %   R. Sabatini et al., J. Phys.: Condens. Matter 24, 424209 (2012).   %
     %                                                                      %
     %%%%%%%%%%%%%%%%%%%%%%%%%%%%%%%%%%%%%%%%%%%%%%%%%%%%%%%%%%%%%%%%%%%%%%%%


     Starting wfcs are  126 randomized atomic wfcs

     total cpu time spent up to now is       21.2 secs

     Self-consistent Calculation

     iteration #  1     ecut=    32.00 Ry     beta= 0.50
     Davidson diagonalization with overlap
     ethr =  1.00E-02,  avg # of iterations =  2.0

     negative rho (up, down):  2.094E-04 0.000E+00

     total cpu time spent up to now is       59.5 secs

     total energy              =    -350.86792239 Ry
     Harris-Foulkes estimate   =    -352.96525691 Ry
     estimated scf accuracy    <       4.24214424 Ry

     iteration #  2     ecut=    32.00 Ry     beta= 0.50
     Davidson diagonalization with overlap
     ethr =  3.37E-03,  avg # of iterations =  6.0

     negative rho (up, down):  5.374E-04 0.000E+00

     total cpu time spent up to now is       92.7 secs

     total energy              =    -351.20470059 Ry
     Harris-Foulkes estimate   =    -351.35943433 Ry
     estimated scf accuracy    <       0.39483661 Ry

     iteration #  3     ecut=    32.00 Ry     beta= 0.50
     Davidson diagonalization with overlap
     ethr =  3.13E-04,  avg # of iterations =  8.8

     negative rho (up, down):  4.570E-04 0.000E+00

     total cpu time spent up to now is      129.9 secs

     total energy              =    -351.24298772 Ry
     Harris-Foulkes estimate   =    -351.25972518 Ry
     estimated scf accuracy    <       0.05250247 Ry

     iteration #  4     ecut=    32.00 Ry     beta= 0.50
     Davidson diagonalization with overlap
     ethr =  4.17E-05,  avg # of iterations =  7.0

     negative rho (up, down):  2.929E-04 0.000E+00

     total cpu time spent up to now is      166.4 secs

     total energy              =    -351.25093235 Ry
     Harris-Foulkes estimate   =    -351.25625831 Ry
     estimated scf accuracy    <       0.01636189 Ry

     iteration #  5     ecut=    32.00 Ry     beta= 0.50
     Davidson diagonalization with overlap
     ethr =  1.30E-05,  avg # of iterations =  3.7

     negative rho (up, down):  3.066E-04 0.000E+00

     total cpu time spent up to now is      197.6 secs

     total energy              =    -351.25424331 Ry
     Harris-Foulkes estimate   =    -351.25457198 Ry
     estimated scf accuracy    <       0.00258473 Ry

     iteration #  6     ecut=    32.00 Ry     beta= 0.50
     Davidson diagonalization with overlap
     ethr =  2.05E-06,  avg # of iterations =  6.1

     negative rho (up, down):  2.442E-04 0.000E+00

     total cpu time spent up to now is      231.2 secs

     total energy              =    -351.25461952 Ry
     Harris-Foulkes estimate   =    -351.25469661 Ry
     estimated scf accuracy    <       0.00027142 Ry

     iteration #  7     ecut=    32.00 Ry     beta= 0.50
     Davidson diagonalization with overlap
     ethr =  2.15E-07,  avg # of iterations =  2.2

     negative rho (up, down):  2.227E-04 0.000E+00

     total cpu time spent up to now is      260.4 secs

     total energy              =    -351.25467047 Ry
     Harris-Foulkes estimate   =    -351.25466929 Ry
     estimated scf accuracy    <       0.00002141 Ry

     iteration #  8     ecut=    32.00 Ry     beta= 0.50
     Davidson diagonalization with overlap
     ethr =  1.70E-08,  avg # of iterations =  2.2

     negative rho (up, down):  2.138E-04 0.000E+00

     total cpu time spent up to now is      294.1 secs

     total energy              =    -351.25467467 Ry
     Harris-Foulkes estimate   =    -351.25467584 Ry
     estimated scf accuracy    <       0.00000378 Ry

     iteration #  9     ecut=    32.00 Ry     beta= 0.50
     Davidson diagonalization with overlap
     ethr =  3.00E-09,  avg # of iterations =  2.1

     negative rho (up, down):  2.103E-04 0.000E+00

     total cpu time spent up to now is      324.7 secs

     End of self-consistent calculation

          k = 0.0000 0.0000 0.0000 ( 31971 PWs)   bands (ev):

   -21.9157 -20.4624 -20.4581 -19.9898 -19.9780 -19.5537 -18.5746 -18.5705
   -18.5656 -18.5644 -16.8429 -16.8091 -16.7046 -15.6415 -15.0620 -15.0608
   -15.0607 -15.0592 -13.2758 -13.2332 -13.0844 -13.0830 -13.0816 -13.0777
   -12.9452 -12.9413 -11.3510 -10.2695 -10.2675 -10.0122  -9.9217  -9.9203
    -9.6284  -9.3238  -9.0921  -9.0899  -9.0803  -9.0767  -8.9425  -8.9068
    -8.9065  -8.7479  -8.6129  -8.3980  -8.2244  -7.8270  -7.6969  -7.5887
    -7.5879  -7.0326  -6.8791  -6.7719  -6.2104  -6.2052  -6.1064  -6.0629
    -5.6176  -5.6165  -4.9032  -4.4846  -4.3402  -2.3841  -2.3726  -2.3660
    -2.3410  -0.7409  -0.0605   0.4671   0.5486   0.6971   1.3542   1.3645
     1.3697   1.3730   1.5874   1.9752

          k = 0.0000 0.0722 0.0000 ( 31929 PWs)   bands (ev):

   -21.8240 -21.0932 -19.9024 -19.8885 -19.6670 -19.5439 -19.1783 -19.1740
   -17.8057 -17.8021 -17.5904 -16.8154 -16.8091 -15.9331 -15.9321 -14.6498
   -14.5316 -14.5314 -13.6854 -13.6849 -13.2656 -13.2254 -12.4242 -12.4239
   -12.3586 -12.3582 -11.5541 -11.3431 -10.7299 -10.7283 -10.1277 -10.1253
    -9.9125  -9.6216  -9.3246  -9.1092  -8.8517  -8.6571  -8.6237  -8.5952
    -8.5798  -8.4222  -8.4189  -8.3442  -8.1525  -7.7893  -7.6079  -7.4339
    -7.0990  -6.9420  -6.9207  -6.8642  -6.6601  -6.6489  -5.9822  -5.8075
    -5.4303  -5.3568  -5.2771  -4.4832  -4.4234  -3.3925  -3.3498  -1.3861
    -1.3825  -0.1437   0.0797   0.4137   0.4526   0.5558   0.6066   0.8272
     1.3132   1.7801   1.8653   2.2033

          k = 0.0000-0.1443 0.0000 ( 31940 PWs)   bands (ev):

   -21.5577 -21.5406 -19.6741 -19.6343 -19.6310 -19.6105 -19.5035 -18.6844
   -18.6831 -16.9410 -16.9187 -16.9071 -16.8997 -16.7977 -16.7813 -14.1599
   -14.1580 -14.1427 -14.1408 -13.2772 -13.2268 -13.1585 -13.1407 -11.5490
   -11.5489 -11.5388 -11.5371 -11.3472 -11.3317 -11.3266 -11.3192 -11.3063
    -9.6183  -9.6158  -9.6003  -9.3241  -8.6808  -8.6095  -8.5965  -8.5675
    -8.2887  -8.2837  -8.2759  -8.2758  -7.6382  -7.3473  -7.3270  -7.3245
    -6.9774  -6.9768  -6.9553  -6.7857  -6.7159  -6.3581  -6.3137  -6.2911
    -6.2177  -4.7552  -4.6060  -4.4030  -4.3840  -4.2968  -4.1157  -0.4766
    -0.4517  -0.4381  -0.4381   0.3221   0.3683   0.5356   0.8813   1.1955
     1.2541   1.4337   1.5418   2.0585

          k = 0.0833 0.0000 0.0000 ( 31951 PWs)   bands (ev):

   -21.7933 -20.8214 -20.3430 -20.3382 -19.5728 -19.3870 -19.3697 -18.9170
   -17.5620 -17.5614 -16.8311 -16.8221 -16.6121 -16.2754 -15.7869 -15.5403
   -14.8891 -14.6258 -14.6245 -14.1315 -13.2359 -13.2251 -12.4115 -12.1649
   -11.7103 -11.4923 -11.4919 -11.3048 -10.1853  -9.9471  -9.9461  -9.8775
    -9.6835  -9.4507  -9.3219  -9.1593  -9.1588  -8.9840  -8.9837  -8.8802
    -8.7456  -8.7273  -8.5957  -8.2297  -8.1033  -8.0436  -8.0429  -7.6672
    -7.2900  -7.0740  -6.8464  -6.7477  -6.7205  -6.4530  -6.0898  -5.8779
    -5.2489  -5.2488  -4.8043  -4.5231  -4.3094  -3.6504  -3.3558  -1.4200
    -1.0914  -0.7658  -0.0256  -0.0161   0.1601   0.5279   0.5476   0.8709
     1.4960   1.7429   2.1295   2.2056

          k = 0.0833 0.0722 0.0000 ( 31951 PWs)   bands (ev):

   -21.7018 -20.9722 -20.7309 -20.0131 -19.5866 -19.5037 -18.8297 -18.5987
   -18.1409 -17.4805 -16.8885 -16.8204 -16.8124 -16.6028 -16.2399 -15.1416
   -14.6519 -14.5586 -14.0414 -13.9175 -13.2343 -13.2265 -12.2220 -12.2119
   -11.9897 -11.7807 -11.5182 -11.2986 -10.7283 -10.3437  -9.7767  -9.7341
    -9.6899  -9.6733  -9.3586  -9.3219  -9.1530  -8.9868  -8.8275  -8.7725
    -8.6607  -8.6378  -8.5084  -8.4771  -8.1601  -7.8204  -7.5251  -7.3462
    -7.3371  -6.9739  -6.7597  -6.7418  -6.4309  -6.3863  -6.1522  -6.0481
    -5.7472  -5.2063  -4.7044  -4.5244  -4.4558  -3.9494  -3.7721  -1.0570
    -0.7362  -0.5465  -0.1462   0.2651   0.4846   0.5741   0.7057   1.0000
     1.4488   1.5947   1.6655   1.9350

          k = 0.0833-0.1443 0.0000 ( 31876 PWs)   bands (ev):

   -21.4359 -21.4188 -20.4679 -20.4525 -19.5590 -18.5803 -18.5705 -18.5681
   -18.5571 -17.6645 -17.6622 -16.8222 -16.8145 -16.3175 -16.3054 -15.2529
   -15.2504 -13.2435 -13.2363 -13.0894 -13.0882 -13.0739 -13.0713 -13.0148
   -13.0038 -11.3987 -11.3800 -11.2925 -10.7082 -10.6991  -9.9249  -9.9159
    -9.6734  -9.4882  -9.4563  -9.3212  -9.0967  -9.0893  -9.0804  -9.0709
    -8.7728  -8.6914  -8.3056  -8.2653  -7.5936  -7.5846  -7.2725  -7.2612
    -7.1187  -6.7761  -6.7684  -6.6111  -6.5983  -6.2310  -6.1434  -6.1409
    -6.0956  -5.2257  -5.1236  -4.5083  -4.3895  -4.1208  -4.1202  -0.8976
    -0.8962   0.4245   0.4319   0.4420   0.4506   0.5171   1.0619   1.3502
     1.3642   1.3847   1.4024   1.4170

          k =-0.1667 0.0000 0.0000 ( 31854 PWs)   bands (ev):

   -21.4309 -21.4239 -19.9919 -19.9850 -19.9841 -19.9745 -19.5406 -17.6661
   -17.6608 -16.8338 -16.8269 -16.7320 -16.7297 -16.3172 -16.2958 -15.6385
   -15.6364 -15.2604 -15.2483 -13.2353 -13.2036 -13.0085 -13.0014 -11.3934
   -11.3911 -11.2508 -10.7084 -10.6984 -10.2725 -10.2725 -10.2668 -10.2657
    -9.7526  -9.4829  -9.4721  -9.3188  -8.9445  -8.9437  -8.9069  -8.9050
    -8.9043  -8.9037  -8.7763  -8.7129  -7.9484  -7.7167  -7.7138  -7.7063
    -7.2712  -7.2604  -6.9091  -6.7372  -6.6343  -6.6114  -6.5990  -5.2414
    -5.1027  -4.7414  -4.7289  -4.7163  -4.4671  -4.1460  -3.9316  -0.9397
    -0.9127  -0.6537  -0.6377   0.2418   0.4559   0.5566   0.5695   0.7262
     0.8557   1.3678   1.4101   2.1882

          k =-0.1667 0.0722 0.0000 ( 31908 PWs)   bands (ev):

   -21.3397 -21.3327 -20.6133 -20.6076 -19.5613 -19.1865 -19.1691 -17.5841
   -17.5788 -17.1551 -17.1539 -16.9922 -16.9821 -16.8222 -16.8052 -15.2379
   -15.2376 -14.3126 -14.3005 -13.5654 -13.5604 -13.2242 -13.2021 -11.5202
   -11.5097 -11.2479 -10.8220 -10.8205 -10.6050 -10.5950  -9.7526  -9.7380
    -9.7261  -9.3884  -9.3676  -9.3176  -9.2525  -9.2520  -9.2126  -9.2125
    -8.7945  -8.7808  -8.4514  -8.4188  -7.9015  -7.8984  -7.6340  -7.6268
    -7.2015  -6.8176  -6.7337  -6.7208  -6.6445  -6.6369  -6.5948  -5.1976
    -5.0599  -4.9427  -4.8338  -4.7908  -4.7079  -4.4211  -4.2442  -0.4981
    -0.4975  -0.3004  -0.2579   0.1460   0.2823   0.5968   0.6114   0.6783
     0.9745   1.4978   1.5246   1.6824

          k =-0.1667-0.1443 0.0000 ( 31784 PWs)   bands (ev):

   -21.0754 -21.0674 -21.0574 -21.0520 -19.5567 -18.2346 -18.2289 -18.2216
   -18.2207 -17.3560 -17.3470 -17.3441 -17.3225 -16.8246 -16.8138 -14.4576
   -14.4503 -14.4471 -14.4373 -13.2283 -13.2067 -12.9243 -12.9192 -12.9121
   -12.9014 -11.2420 -10.3006 -10.2932 -10.2785 -10.2664  -9.9360  -9.9296
    -9.9144  -9.9045  -9.7428  -9.3187  -9.1374  -9.1204  -9.0777  -8.9916
    -8.6777  -8.6156  -8.3766  -8.3739  -8.3722  -8.3674  -7.0978  -7.0567
    -7.0537  -7.0520  -7.0434  -6.7623  -6.6431  -5.9082  -5.7676  -5.7477
    -5.6896  -5.1132  -4.9581  -4.9398  -4.9052  -4.4005  -4.3809  -0.2164
    -0.1429  -0.0966  -0.0900   0.4856   0.5548   0.7663   1.0483   1.0609
     1.0795   1.1640   1.1735   1.4078

          k =-0.0833 0.0722 0.0000 ( 31951 PWs)   bands (ev):

   -21.7018 -20.9722 -20.7309 -20.0131 -19.5866 -19.5037 -18.8297 -18.5987
   -18.1409 -17.4805 -16.8887 -16.8193 -16.8132 -16.6028 -16.2399 -15.1416
   -14.6519 -14.5586 -14.0414 -13.9175 -13.2344 -13.2264 -12.2220 -12.2119
   -11.9897 -11.7807 -11.5182 -11.2986 -10.7283 -10.3437  -9.7768  -9.7341
    -9.6899  -9.6733  -9.3586  -9.3219  -9.1530  -8.9866  -8.8274  -8.7725
    -8.6613  -8.6378  -8.5080  -8.4771  -8.1601  -7.8204  -7.5251  -7.3463
    -7.3371  -6.9739  -6.7602  -6.7414  -6.4309  -6.3863  -6.1522  -6.0481
    -5.7472  -5.2063  -4.7047  -4.5247  -4.4551  -3.9495  -3.7721  -1.0570
    -0.7362  -0.5466  -0.1462   0.2650   0.4848   0.5739   0.7058   1.0000
     1.4488   1.5948   1.6655   1.9350

     the Fermi energy is    -2.3659 ev

!    total energy              =    -351.25467499 Ry
     Harris-Foulkes estimate   =    -351.25467528 Ry
     estimated scf accuracy    <       0.00000040 Ry

     The total energy is the sum of the following terms:

     one-electron contribution =   -4816.33176167 Ry
     hartree contribution      =    2428.13684187 Ry
     xc contribution           =    -112.31383008 Ry
     ewald contribution        =    2149.25688642 Ry
     smearing contrib. (-TS)   =      -0.00281153 Ry

     convergence has been achieved in   9 iterations

     Forces acting on atoms (cartesian axes, Ry/au):

     atom    1 type  1   force =     0.00034929    0.00074842    0.00048505
     atom    2 type  1   force =    -0.00000025   -0.00023036    0.00133169
     atom    3 type  1   force =    -0.00000006    0.00124184    0.00070850
     atom    4 type  1   force =     0.00114169   -0.00087058   -0.00407313
     atom    5 type  1   force =     0.00114189    0.00087043   -0.00407271
     atom    6 type  1   force =     0.00000006   -0.00124184    0.00070850
     atom    7 type  1   force =     0.00000025    0.00023036    0.00133169
     atom    8 type  1   force =     0.00034938   -0.00074837    0.00048501
     atom    9 type  1   force =     0.00000025    0.00027726    0.00119580
     atom   10 type  1   force =    -0.00005668    0.00117966   -0.00179506
     atom   11 type  1   force =    -0.00022218    0.00123497   -0.00810462
     atom   12 type  1   force =     0.00000038    0.00109632   -0.00987165
     atom   13 type  1   force =    -0.00000038   -0.00109632   -0.00987165
     atom   14 type  1   force =    -0.00022181   -0.00123542   -0.00810661
     atom   15 type  1   force =    -0.00005639   -0.00117954   -0.00179547
     atom   16 type  1   force =    -0.00000025   -0.00027726    0.00119580
     atom   17 type  1   force =    -0.00034938    0.00074837    0.00048501
     atom   18 type  1   force =     0.00005639    0.00117954   -0.00179547
     atom   19 type  1   force =     0.00022181    0.00123542   -0.00810661
     atom   20 type  1   force =    -0.00114189   -0.00087043   -0.00407271
     atom   21 type  1   force =    -0.00114169    0.00087058   -0.00407313
     atom   22 type  1   force =     0.00022218   -0.00123497   -0.00810462
     atom   23 type  1   force =     0.00005668   -0.00117966   -0.00179506
     atom   24 type  1   force =    -0.00034929   -0.00074842    0.00048505
     atom   25 type  1   force =     0.00264148   -0.00366978    0.01096028
     atom   26 type  1   force =    -0.00276001   -0.00337939    0.01095776
     atom   27 type  1   force =    -0.00332981   -0.00025412    0.01041848
     atom   28 type  1   force =    -0.00264148    0.00366978    0.01096028
     atom   29 type  1   force =     0.00276001    0.00337939    0.01095776
     atom   30 type  1   force =     0.00332981    0.00025412    0.01041848
     atom   31 type  2   force =    -0.00272203    0.00469164    0.00032811
     atom   32 type  2   force =     0.00263156    0.00452396    0.00032754
     atom   33 type  2   force =     0.00683197    0.00000549    0.00062103
     atom   34 type  2   force =     0.00272203   -0.00469164    0.00032811
     atom   35 type  2   force =    -0.00263156   -0.00452396    0.00032754
     atom   36 type  2   force =    -0.00683197   -0.00000549    0.00062103

     Total force =     0.039760     Total SCF correction =     0.001464

     BFGS Geometry Optimization

     number of scf cycles    =   1
     number of bfgs steps    =   0

     energy   new            =    -351.2546749913 Ry

     new trust radius        =       0.0118563219 bohr
     new conv_thr            =       0.0000010000 Ry


ATOMIC_POSITIONS (angstrom)
C        1.230184839   0.000396046   0.000256679
C       -0.000000131   0.710018931   0.000704699
C       -0.000000032   2.131079645   0.000374921
C        1.230604157   2.840102631  -0.002155406
C        1.230604260   4.261305600  -0.002155184
C        0.000000032   4.970328666   0.000374921
C        0.000000131   6.391389380   0.000704699
C        1.230184885   7.101012293   0.000256659
C        3.690000132   0.000146721   0.000632792
C        2.459970007   0.710765078  -0.000949906
C        2.459882425   2.131076009  -0.004288781
C        3.690000201   2.841143469  -0.005223854
C        3.689999799   4.260264842  -0.005223854
C        2.459882623   4.970332061  -0.004289832
C        2.459970159   6.390643293  -0.000950121
C        3.689999868   7.101261590   0.000632792
C        6.149815115   0.000396018   0.000256659
C        4.920029841   0.710765018  -0.000950121
C        4.920117377   2.131076250  -0.004289832
C        6.149395740   2.840102711  -0.002155184
C        6.149395843   4.261305680  -0.002155406
C        4.920117575   4.970332302  -0.004288781
C        4.920029993   6.390643233  -0.000949906
C        6.149815161   7.101012265   0.000256679
C        4.388828218   2.340777286   3.005799928
C        2.991301986   2.341036429   3.005798599
C        2.293564928   3.550684025   3.005513220
C        2.991171782   4.760631025   3.005799928
C        4.388698014   4.760371882   3.005798599
C        5.086435072   3.550724286   3.005513220
H        4.931363463   1.400587369   3.000173626
H        2.448726951   1.400811361   3.000173329
H        1.208347496   3.550670457   3.000328632
H        2.448636537   5.700820942   3.000173626
H        4.931273049   5.700596950   3.000173329
H        6.171652504   3.550737854   3.000328632



     Writing output data file batch_graph+benzene.save/
     NEW-OLD atomic charge density approx. for the potential

     negative rho (up, down):  2.096E-04 0.000E+00

     total cpu time spent up to now is      340.5 secs

     Self-consistent Calculation

     iteration #  1     ecut=    32.00 Ry     beta= 0.50
     Davidson diagonalization with overlap
     ethr =  1.00E-06,  avg # of iterations =  3.0

     negative rho (up, down):  2.098E-04 0.000E+00

     total cpu time spent up to now is      384.4 secs

     total energy              =    -351.25592967 Ry
     Harris-Foulkes estimate   =    -351.25605199 Ry
     estimated scf accuracy    <       0.00028756 Ry

     iteration #  2     ecut=    32.00 Ry     beta= 0.50
     Davidson diagonalization with overlap
     ethr =  2.28E-07,  avg # of iterations =  2.0

     negative rho (up, down):  2.100E-04 0.000E+00

     total cpu time spent up to now is      415.8 secs

     total energy              =    -351.25597207 Ry
     Harris-Foulkes estimate   =    -351.25597950 Ry
     estimated scf accuracy    <       0.00003393 Ry

     iteration #  3     ecut=    32.00 Ry     beta= 0.50
     Davidson diagonalization with overlap
     ethr =  2.69E-08,  avg # of iterations =  2.0

     negative rho (up, down):  2.105E-04 0.000E+00

     total cpu time spent up to now is      446.8 secs

     total energy              =    -351.25597672 Ry
     Harris-Foulkes estimate   =    -351.25597766 Ry
     estimated scf accuracy    <       0.00000729 Ry

     iteration #  4     ecut=    32.00 Ry     beta= 0.50
     Davidson diagonalization with overlap
     ethr =  5.79E-09,  avg # of iterations =  2.0

     negative rho (up, down):  2.105E-04 0.000E+00

     total cpu time spent up to now is      478.1 secs

     total energy              =    -351.25597781 Ry
     Harris-Foulkes estimate   =    -351.25597819 Ry
     estimated scf accuracy    <       0.00000176 Ry

     iteration #  5     ecut=    32.00 Ry     beta= 0.50
     Davidson diagonalization with overlap
     ethr =  1.40E-09,  avg # of iterations =  2.1

     negative rho (up, down):  2.100E-04 0.000E+00

     total cpu time spent up to now is      507.5 secs

     End of self-consistent calculation

          k = 0.0000 0.0000 0.0000 ( 31971 PWs)   bands (ev):

   -21.9195 -20.4654 -20.4624 -19.9908 -19.9839 -19.5287 -18.5759 -18.5747
   -18.5732 -18.5674 -16.8372 -16.8078 -16.7090 -15.6424 -15.0680 -15.0656
   -15.0639 -15.0618 -13.2849 -13.2466 -13.0894 -13.0875 -13.0872 -13.0828
   -12.9503 -12.9454 -11.3620 -10.2770 -10.2750 -10.0145  -9.9236  -9.9213
    -9.6783  -9.3058  -9.0934  -9.0915  -9.0846  -9.0827  -8.9490  -8.9082
    -8.9061  -8.7584  -8.6277  -8.3953  -8.2293  -7.8236  -7.7019  -7.5966
    -7.5953  -7.0263  -6.8838  -6.7898  -6.2092  -6.2065  -6.1144  -6.0684
    -5.6262  -5.6165  -4.9007  -4.4825  -4.3424  -2.3922  -2.3761  -2.3654
    -2.3458  -0.7398  -0.0511   0.4592   0.5326   0.6964   1.3468   1.3584
     1.3687   1.3690   1.5892   1.9759

          k = 0.0000 0.0722 0.0000 ( 31929 PWs)   bands (ev):

   -21.8277 -21.0970 -19.9031 -19.8944 -19.6672 -19.5227 -19.1842 -19.1761
   -17.8079 -17.8077 -17.5944 -16.8088 -16.8077 -15.9376 -15.9356 -14.6517
   -14.5366 -14.5355 -13.6908 -13.6891 -13.2752 -13.2396 -12.4285 -12.4271
   -12.3648 -12.3625 -11.5561 -11.3543 -10.7363 -10.7344 -10.1303 -10.1297
    -9.9146  -9.6716  -9.3066  -9.1112  -8.8584  -8.6679  -8.6349  -8.5979
    -8.5845  -8.4246  -8.4216  -8.3460  -8.1598  -7.7819  -7.6126  -7.4343
    -7.0955  -6.9501  -6.9285  -6.8685  -6.6755  -6.6527  -5.9815  -5.8169
    -5.4278  -5.3606  -5.2819  -4.4813  -4.4212  -3.3966  -3.3541  -1.3897
    -1.3869  -0.1433   0.0871   0.4087   0.4484   0.5403   0.5978   0.8262
     1.3182   1.7866   1.8651   2.2041

          k = 0.0000-0.1443 0.0000 ( 31940 PWs)   bands (ev):

   -21.5601 -21.5457 -19.6654 -19.6356 -19.6345 -19.6188 -19.4888 -18.6885
   -18.6869 -16.9388 -16.9220 -16.9105 -16.9069 -16.7972 -16.7778 -14.1627
   -14.1609 -14.1508 -14.1456 -13.2861 -13.2410 -13.1596 -13.1450 -11.5540
   -11.5529 -11.5461 -11.5426 -11.3561 -11.3328 -11.3302 -11.3252 -11.3128
    -9.6661  -9.6194  -9.6027  -9.3063  -8.6923  -8.6237  -8.6001  -8.5785
    -8.2919  -8.2872  -8.2792  -8.2761  -7.6262  -7.3508  -7.3320  -7.3257
    -6.9799  -6.9756  -6.9534  -6.7902  -6.7350  -6.3595  -6.3202  -6.3023
    -6.2239  -4.7472  -4.6038  -4.4086  -4.3883  -4.2993  -4.1200  -0.4827
    -0.4565  -0.4413  -0.4403   0.3242   0.3627   0.5192   0.8906   1.1942
     1.2580   1.4305   1.5392   2.0677

          k = 0.0833 0.0000 0.0000 ( 31951 PWs)   bands (ev):

   -21.7971 -20.8252 -20.3459 -20.3425 -19.5485 -19.3914 -19.3718 -18.9210
   -17.5664 -17.5648 -16.8242 -16.8208 -16.6175 -16.2792 -15.7927 -15.5413
   -14.8900 -14.6312 -14.6292 -14.1376 -13.2456 -13.2393 -12.4137 -12.1709
   -11.7174 -11.4969 -11.4964 -11.3164 -10.1863  -9.9490  -9.9472  -9.8798
    -9.7319  -9.4573  -9.3040  -9.1627  -9.1627  -8.9876  -8.9864  -8.8856
    -8.7543  -8.7377  -8.6035  -8.2288  -8.1076  -8.0513  -8.0501  -7.6672
    -7.2825  -7.0776  -6.8484  -6.7548  -6.7390  -6.4567  -6.0993  -5.8769
    -5.2508  -5.2505  -4.7997  -4.5207  -4.3136  -3.6534  -3.3633  -1.4205
    -1.0969  -0.7649  -0.0296  -0.0216   0.1661   0.5193   0.5306   0.8702
     1.4981   1.7455   2.1285   2.2020

          k = 0.0833 0.0722 0.0000 ( 31951 PWs)   bands (ev):

   -21.7055 -20.9760 -20.7346 -20.0165 -19.5731 -19.4955 -18.8337 -18.6027
   -18.1449 -17.4845 -16.8905 -16.8181 -16.8086 -16.6071 -16.2436 -15.1469
   -14.6575 -14.5607 -14.0437 -13.9225 -13.2442 -13.2405 -12.2279 -12.2156
   -11.9957 -11.7836 -11.5201 -11.3103 -10.7333 -10.3482  -9.7788  -9.7443
    -9.7170  -9.6898  -9.3650  -9.3041  -9.1595  -8.9895  -8.8344  -8.7754
    -8.6705  -8.6451  -8.5153  -8.4789  -8.1634  -7.8199  -7.5266  -7.3453
    -7.3428  -6.9716  -6.7775  -6.7499  -6.4361  -6.3900  -6.1546  -6.0516
    -5.7505  -5.2069  -4.7046  -4.5233  -4.4540  -3.9559  -3.7751  -1.0627
    -0.7380  -0.5524  -0.1459   0.2703   0.4728   0.5654   0.6964   0.9989
     1.4529   1.5964   1.6629   1.9310

          k = 0.0833-0.1443 0.0000 ( 31876 PWs)   bands (ev):

   -21.4383 -21.4239 -20.4704 -20.4575 -19.5331 -18.5827 -18.5741 -18.5719
   -18.5633 -17.6685 -17.6660 -16.8207 -16.8081 -16.3202 -16.3095 -15.2576
   -15.2571 -13.2525 -13.2497 -13.0943 -13.0891 -13.0780 -13.0775 -13.0166
   -13.0083 -11.4019 -11.3878 -11.3042 -10.7106 -10.7031  -9.9292  -9.9226
    -9.7222  -9.4893  -9.4587  -9.3034  -9.1003  -9.0922  -9.0829  -9.0810
    -8.7834  -8.7023  -8.3076  -8.2683  -7.5976  -7.5857  -7.2767  -7.2611
    -7.1085  -6.7872  -6.7827  -6.6153  -6.6073  -6.2318  -6.1464  -6.1440
    -6.1018  -5.2253  -5.1278  -4.5063  -4.3890  -4.1238  -4.1230  -0.9034
    -0.9024   0.4198   0.4275   0.4398   0.4470   0.5083   1.0684   1.3473
     1.3589   1.3822   1.3958   1.4187

          k =-0.1667 0.0000 0.0000 ( 31854 PWs)   bands (ev):

   -21.4338 -21.4286 -19.9951 -19.9890 -19.9856 -19.9792 -19.5165 -17.6701
   -17.6646 -16.8325 -16.8199 -16.7359 -16.7326 -16.3224 -16.3020 -15.6444
   -15.6418 -15.2576 -15.2529 -13.2488 -13.2132 -13.0150 -13.0087 -11.3947
   -11.3928 -11.2629 -10.7157 -10.7035 -10.2742 -10.2732 -10.2711 -10.2694
    -9.7993  -9.4836  -9.4746  -9.3007  -8.9477  -8.9458  -8.9148  -8.9134
    -8.9098  -8.9069  -8.7889  -8.7242  -7.9418  -7.7207  -7.7169  -7.7088
    -7.2834  -7.2658  -6.9065  -6.7566  -6.6443  -6.6067  -6.6028  -5.2396
    -5.1054  -4.7442  -4.7313  -4.7057  -4.4677  -4.1534  -3.9402  -0.9427
    -0.9090  -0.6601  -0.6445   0.2379   0.4496   0.5488   0.5717   0.7073
     0.8617   1.3667   1.4098   2.1928

          k =-0.1667 0.0722 0.0000 ( 31908 PWs)   bands (ev):

   -21.3425 -21.3374 -20.6162 -20.6123 -19.5355 -19.1892 -19.1741 -17.5881
   -17.5826 -17.1583 -17.1581 -16.9956 -16.9856 -16.8218 -16.7996 -15.2433
   -15.2427 -14.3117 -14.3055 -13.5709 -13.5660 -13.2386 -13.2116 -11.5190
   -11.5150 -11.2602 -10.8247 -10.8227 -10.6124 -10.6002  -9.7972  -9.7458
    -9.7335  -9.3887  -9.3706  -9.3002  -9.2585  -9.2528  -9.2163  -9.2151
    -8.8061  -8.7884  -8.4550  -8.4228  -7.9059  -7.9034  -7.6441  -7.6303
    -7.1919  -6.8246  -6.7492  -6.7253  -6.6428  -6.6421  -6.6032  -5.1955
    -5.0618  -4.9376  -4.8363  -4.7932  -4.7132  -4.4232  -4.2486  -0.5046
    -0.5033  -0.3033  -0.2561   0.1423   0.2761   0.5886   0.6009   0.6703
     0.9797   1.4957   1.5239   1.6866

          k =-0.1667-0.1443 0.0000 ( 31784 PWs)   bands (ev):

   -21.0777 -21.0700 -21.0608 -21.0588 -19.5306 -18.2368 -18.2321 -18.2267
   -18.2260 -17.3578 -17.3499 -17.3491 -17.3282 -16.8238 -16.8074 -14.4618
   -14.4549 -14.4528 -14.4436 -13.2426 -13.2160 -12.9235 -12.9185 -12.9152
   -12.9089 -11.2544 -10.3058 -10.2951 -10.2885 -10.2753  -9.9388  -9.9344
    -9.9166  -9.9068  -9.7888  -9.3009  -9.1355  -9.1256  -9.0807  -8.9940
    -8.6884  -8.6264  -8.3840  -8.3812  -8.3736  -8.3720  -7.0877  -7.0618
    -7.0577  -7.0518  -7.0470  -6.7811  -6.6531  -5.9051  -5.7710  -5.7525
    -5.6961  -5.1106  -4.9600  -4.9425  -4.9086  -4.4030  -4.3797  -0.2183
    -0.1501  -0.1039  -0.0955   0.4803   0.5369   0.7634   1.0448   1.0629
     1.0775   1.1668   1.1688   1.4131

          k =-0.0833 0.0722 0.0000 ( 31951 PWs)   bands (ev):

   -21.7055 -20.9760 -20.7346 -20.0165 -19.5731 -19.4955 -18.8337 -18.6027
   -18.1449 -17.4845 -16.8904 -16.8182 -16.8085 -16.6071 -16.2436 -15.1469
   -14.6575 -14.5607 -14.0437 -13.9225 -13.2439 -13.2407 -12.2279 -12.2156
   -11.9957 -11.7836 -11.5201 -11.3103 -10.7333 -10.3482  -9.7789  -9.7443
    -9.7170  -9.6898  -9.3650  -9.3041  -9.1595  -8.9894  -8.8344  -8.7754
    -8.6710  -8.6451  -8.5151  -8.4789  -8.1634  -7.8199  -7.5266  -7.3453
    -7.3428  -6.9717  -6.7760  -6.7513  -6.4361  -6.3899  -6.1546  -6.0516
    -5.7505  -5.2069  -4.7045  -4.5231  -4.4542  -3.9559  -3.7751  -1.0627
    -0.7380  -0.5524  -0.1459   0.2703   0.4726   0.5658   0.6962   0.9989
     1.4529   1.5964   1.6629   1.9310

     the Fermi energy is    -2.3699 ev

!    total energy              =    -351.25597804 Ry
     Harris-Foulkes estimate   =    -351.25597823 Ry
     estimated scf accuracy    <       0.00000028 Ry

     The total energy is the sum of the following terms:

     one-electron contribution =   -4813.29231087 Ry
     hartree contribution      =    2426.61091361 Ry
     xc contribution           =    -112.32063319 Ry
     ewald contribution        =    2147.74886256 Ry
     smearing contrib. (-TS)   =      -0.00281015 Ry

     convergence has been achieved in   5 iterations

     Forces acting on atoms (cartesian axes, Ry/au):

     atom    1 type  1   force =     0.00029553   -0.00015899    0.00047195
     atom    2 type  1   force =     0.00000000    0.00058642    0.00204194
     atom    3 type  1   force =    -0.00000020    0.00086042    0.00050161
     atom    4 type  1   force =    -0.00022992    0.00120675   -0.00405547
     atom    5 type  1   force =    -0.00022981   -0.00120645   -0.00405674
     atom    6 type  1   force =     0.00000020   -0.00086042    0.00050161
     atom    7 type  1   force =    -0.00000000   -0.00058642    0.00204194
     atom    8 type  1   force =     0.00029552    0.00015909    0.00047190
     atom    9 type  1   force =    -0.00000038    0.00071367    0.00156364
     atom   10 type  1   force =     0.00016479    0.00040815   -0.00196626
     atom   11 type  1   force =     0.00066309    0.00016161   -0.00728677
     atom   12 type  1   force =    -0.00000115    0.00017868   -0.01002886
     atom   13 type  1   force =     0.00000115   -0.00017868   -0.01002886
     atom   14 type  1   force =     0.00066185   -0.00016106   -0.00728669
     atom   15 type  1   force =     0.00016438   -0.00040871   -0.00196724
     atom   16 type  1   force =     0.00000038   -0.00071367    0.00156364
     atom   17 type  1   force =    -0.00029552   -0.00015909    0.00047190
     atom   18 type  1   force =    -0.00016438    0.00040871   -0.00196724
     atom   19 type  1   force =    -0.00066185    0.00016106   -0.00728669
     atom   20 type  1   force =     0.00022981    0.00120645   -0.00405674
     atom   21 type  1   force =     0.00022992   -0.00120675   -0.00405547
     atom   22 type  1   force =    -0.00066309   -0.00016161   -0.00728677
     atom   23 type  1   force =    -0.00016479   -0.00040815   -0.00196626
     atom   24 type  1   force =    -0.00029553    0.00015899    0.00047195
     atom   25 type  1   force =    -0.00376527    0.00500206    0.01001284
     atom   26 type  1   force =     0.00377781    0.00447477    0.01001347
     atom   27 type  1   force =     0.00602989    0.00027584    0.00972416
     atom   28 type  1   force =     0.00376527   -0.00500206    0.01001284
     atom   29 type  1   force =    -0.00377781   -0.00447477    0.01001347
     atom   30 type  1   force =    -0.00602989   -0.00027584    0.00972416
     atom   31 type  2   force =     0.00056726   -0.00084648    0.00054143
     atom   32 type  2   force =    -0.00056762   -0.00080791    0.00054145
     atom   33 type  2   force =     0.00008442   -0.00002080    0.00076364
     atom   34 type  2   force =    -0.00056726    0.00084648    0.00054143
     atom   35 type  2   force =     0.00056762    0.00080791    0.00054145
     atom   36 type  2   force =    -0.00008442    0.00002080    0.00076364

     Total force =     0.036582     Total SCF correction =     0.001379

     number of scf cycles    =   2
     number of bfgs steps    =   1

     energy   old            =    -351.2546749913 Ry
     energy   new            =    -351.2559780403 Ry

     CASE: energy  _new < energy  _old

     new trust radius        =       0.0130419541 bohr
     new conv_thr            =       0.0000010000 Ry


ATOMIC_POSITIONS (angstrom)
C        1.230397693   0.000617883   0.000570463
C       -0.000000219   0.710109572   0.001786817
C       -0.000000112   2.131780142   0.000777738
C        1.230946291   2.840146708  -0.004817647
C        1.230946495   4.261261557  -0.004817650
C        0.000000112   4.969628170   0.000777738
C        0.000000219   6.391298739   0.001786817
C        1.230397768   7.100790507   0.000570415
C        3.690000108   0.000457333   0.001524675
C        2.459998372   0.711309511  -0.002176099
C        2.459998673   2.131567413  -0.009354621
C        3.689999998   2.841590116  -0.011735210
C        3.690000002   4.259818195  -0.011735210
C        2.459998637   4.969840655  -0.009356362
C        2.459998506   6.390098736  -0.002176747
C        3.689999892   7.100950978   0.001524675
C        6.149602232   0.000617804   0.000570415
C        4.920001494   0.711309575  -0.002176747
C        4.920001363   2.131567656  -0.009356362
C        6.149053505   2.840146754  -0.004817650
C        6.149053709   4.261261603  -0.004817647
C        4.920001327   4.969840898  -0.009354621
C        4.920001628   6.390098800  -0.002176099
C        6.149602307   7.100790428   0.000570463
C        4.388663785   2.340938022   3.012697601
C        2.991427548   2.341145573   3.012695554
C        2.294151694   3.550674299   3.012130913
C        2.991336215   4.760470289   3.012697601
C        4.388572452   4.760262738   3.012695554
C        5.085848306   3.550734012   3.012130913
H        4.930553387   1.402022405   3.000451574
H        2.449504422   1.402197568   3.000451081
H        1.210826620   3.550666278   3.000777504
H        2.449446613   5.699385906   3.000451574
H        4.930495578   5.699210743   3.000451081
H        6.169173380   3.550742033   3.000777504



     Writing output data file batch_graph+benzene.save/
     NEW-OLD atomic charge density approx. for the potential

     negative rho (up, down):  2.095E-04 0.000E+00

     total cpu time spent up to now is      523.6 secs

     Self-consistent Calculation

     iteration #  1     ecut=    32.00 Ry     beta= 0.50
     Davidson diagonalization with overlap
     ethr =  1.00E-06,  avg # of iterations =  3.4

     negative rho (up, down):  2.096E-04 0.000E+00

     total cpu time spent up to now is      569.2 secs

     total energy              =    -351.25724906 Ry
     Harris-Foulkes estimate   =    -351.25739964 Ry
     estimated scf accuracy    <       0.00033978 Ry

     iteration #  2     ecut=    32.00 Ry     beta= 0.50
     Davidson diagonalization with overlap
     ethr =  2.70E-07,  avg # of iterations =  2.0

     negative rho (up, down):  2.100E-04 0.000E+00

     total cpu time spent up to now is      601.5 secs

     total energy              =    -351.25730847 Ry
     Harris-Foulkes estimate   =    -351.25731713 Ry
     estimated scf accuracy    <       0.00003885 Ry

     iteration #  3     ecut=    32.00 Ry     beta= 0.50
     Davidson diagonalization with overlap
     ethr =  3.08E-08,  avg # of iterations =  2.0

     negative rho (up, down):  2.105E-04 0.000E+00

     total cpu time spent up to now is      632.3 secs

     total energy              =    -351.25731456 Ry
     Harris-Foulkes estimate   =    -351.25731490 Ry
     estimated scf accuracy    <       0.00000782 Ry

     iteration #  4     ecut=    32.00 Ry     beta= 0.50
     Davidson diagonalization with overlap
     ethr =  6.21E-09,  avg # of iterations =  2.0

     negative rho (up, down):  2.110E-04 0.000E+00

     total cpu time spent up to now is      663.0 secs

     total energy              =    -351.25731567 Ry
     Harris-Foulkes estimate   =    -351.25731575 Ry
     estimated scf accuracy    <       0.00000132 Ry

     iteration #  5     ecut=    32.00 Ry     beta= 0.50
     Davidson diagonalization with overlap
     ethr =  1.05E-09,  avg # of iterations =  2.2

     negative rho (up, down):  2.098E-04 0.000E+00

     total cpu time spent up to now is      693.1 secs

     End of self-consistent calculation

          k = 0.0000 0.0000 0.0000 ( 31971 PWs)   bands (ev):

   -21.9227 -20.4687 -20.4653 -19.9927 -19.9881 -19.5324 -18.5789 -18.5777
   -18.5774 -18.5709 -16.8393 -16.8116 -16.7142 -15.6447 -15.0732 -15.0679
   -15.0669 -15.0650 -13.2895 -13.2509 -13.0934 -13.0915 -13.0910 -13.0862
   -12.9541 -12.9492 -11.3696 -10.2820 -10.2792 -10.0163  -9.9257  -9.9242
    -9.6864  -9.3064  -9.0945  -9.0942  -9.0883  -9.0876  -8.9533  -8.9106
    -8.9085  -8.7633  -8.6330  -8.3941  -8.2312  -7.8237  -7.7046  -7.6010
    -7.6004  -7.0357  -6.8834  -6.7928  -6.2085  -6.2078  -6.1183  -6.0755
    -5.6317  -5.6182  -4.8996  -4.4871  -4.3521  -2.3962  -2.3786  -2.3677
    -2.3509  -0.7394  -0.0472   0.4591   0.5328   0.6944   1.3408   1.3542
     1.3657   1.3665   1.5892   1.9780

          k = 0.0000 0.0722 0.0000 ( 31929 PWs)   bands (ev):

   -21.8309 -21.1002 -19.9049 -19.8986 -19.6697 -19.5267 -19.1886 -19.1790
   -17.8122 -17.8100 -17.5977 -16.8125 -16.8115 -15.9420 -15.9381 -14.6544
   -14.5400 -14.5393 -13.6946 -13.6925 -13.2802 -13.2443 -12.4322 -12.4301
   -12.3689 -12.3663 -11.5588 -11.3620 -10.7409 -10.7383 -10.1337 -10.1327
    -9.9162  -9.6799  -9.3073  -9.1129  -8.8627  -8.6719  -8.6393  -8.6003
    -8.5883  -8.4270  -8.4253  -8.3487  -8.1645  -7.7801  -7.6153  -7.4356
    -7.0991  -6.9550  -6.9312  -6.8692  -6.6783  -6.6627  -5.9833  -5.8224
    -5.4258  -5.3631  -5.2859  -4.4859  -4.4286  -3.3998  -3.3588  -1.3928
    -1.3907  -0.1412   0.0906   0.4060   0.4465   0.5390   0.5935   0.8241
     1.3207   1.7875   1.8638   2.2034

          k = 0.0000-0.1443 0.0000 ( 31940 PWs)   bands (ev):

   -21.5603 -21.5520 -19.6681 -19.6355 -19.6347 -19.6263 -19.4949 -18.6926
   -18.6895 -16.9388 -16.9258 -16.9140 -16.9113 -16.8017 -16.7826 -14.1634
   -14.1612 -14.1579 -14.1520 -13.2906 -13.2457 -13.1603 -13.1505 -11.5574
   -11.5566 -11.5512 -11.5462 -11.3626 -11.3331 -11.3319 -11.3314 -11.3190
    -9.6744  -9.6216  -9.6033  -9.3070  -8.6967  -8.6286  -8.6003  -8.5876
    -8.2928  -8.2904  -8.2836  -8.2797  -7.6246  -7.3523  -7.3359  -7.3250
    -6.9816  -6.9788  -6.9561  -6.7988  -6.7378  -6.3597  -6.3233  -6.3095
    -6.2298  -4.7446  -4.6053  -4.4117  -4.3923  -4.3050  -4.1306  -0.4876
    -0.4587  -0.4444  -0.4435   0.3262   0.3661   0.5192   0.8931   1.1923
     1.2588   1.4282   1.5330   2.0692

          k = 0.0833 0.0000 0.0000 ( 31951 PWs)   bands (ev):

   -21.8003 -20.8284 -20.3493 -20.3455 -19.5510 -19.3944 -19.3766 -18.9244
   -17.5693 -17.5685 -16.8269 -16.8245 -16.6222 -16.2826 -15.7968 -15.5436
   -14.8923 -14.6346 -14.6333 -14.1418 -13.2507 -13.2442 -12.4164 -12.1749
   -11.7219 -11.5004 -11.5001 -11.3245 -10.1886  -9.9511  -9.9503  -9.8812
    -9.7396  -9.4616  -9.3046  -9.1664  -9.1657  -8.9905  -8.9899  -8.8880
    -8.7594  -8.7427  -8.6053  -8.2289  -8.1095  -8.0556  -8.0552  -7.6694
    -7.2847  -7.0796  -6.8564  -6.7574  -6.7417  -6.4616  -6.1046  -5.8787
    -5.2525  -5.2521  -4.7980  -4.5246  -4.3228  -3.6569  -3.3695  -1.4225
    -1.1003  -0.7650  -0.0335  -0.0248   0.1685   0.5188   0.5293   0.8681
     1.5004   1.7463   2.1278   2.2000

          k = 0.0833 0.0722 0.0000 ( 31951 PWs)   bands (ev):

   -21.7087 -20.9792 -20.7378 -20.0196 -19.5753 -19.5002 -18.8371 -18.6061
   -18.1484 -17.4877 -16.8931 -16.8219 -16.8122 -16.6112 -16.2469 -15.1508
   -14.6615 -14.5634 -14.0465 -13.9263 -13.2493 -13.2453 -12.2321 -12.2188
   -11.9999 -11.7865 -11.5228 -11.3184 -10.7371 -10.3518  -9.7803  -9.7485
    -9.7228  -9.6935  -9.3693  -9.3047  -9.1640  -8.9914  -8.8371  -8.7785
    -8.6739  -8.6498  -8.5177  -8.4816  -8.1667  -7.8202  -7.5293  -7.3498
    -7.3444  -6.9815  -6.7800  -6.7517  -6.4401  -6.3929  -6.1572  -6.0548
    -5.7532  -5.2072  -4.7060  -4.5271  -4.4596  -3.9636  -3.7786  -1.0664
    -0.7405  -0.5568  -0.1450   0.2731   0.4739   0.5642   0.6903   0.9967
     1.4553   1.5987   1.6605   1.9269

          k = 0.0833-0.1443 0.0000 ( 31876 PWs)   bands (ev):

   -21.4384 -21.4302 -20.4705 -20.4637 -19.5365 -18.5826 -18.5781 -18.5746
   -18.5700 -17.6724 -17.6687 -16.8244 -16.8118 -16.3212 -16.3149 -15.2625
   -15.2603 -13.2571 -13.2539 -13.0982 -13.0898 -13.0827 -13.0825 -13.0171
   -13.0140 -11.4026 -11.3949 -11.3123 -10.7117 -10.7082  -9.9327  -9.9271
    -9.7301  -9.4914  -9.4594  -9.3041  -9.1007  -9.0936  -9.0899  -9.0869
    -8.7870  -8.7066  -8.3094  -8.2688  -7.6002  -7.5891  -7.2795  -7.2640
    -7.1168  -6.7896  -6.7840  -6.6182  -6.6133  -6.2316  -6.1506  -6.1446
    -6.1073  -5.2247  -5.1313  -4.5105  -4.3969  -4.1282  -4.1262  -0.9090
    -0.9054   0.4237   0.4294   0.4362   0.4447   0.5094   1.0698   1.3453
     1.3547   1.3795   1.3903   1.4177

          k =-0.1667 0.0000 0.0000 ( 31854 PWs)   bands (ev):

   -21.4361 -21.4326 -19.9985 -19.9908 -19.9885 -19.9833 -19.5209 -17.6731
   -17.6680 -16.8362 -16.8227 -16.7387 -16.7364 -16.3256 -16.3073 -15.6481
   -15.6461 -15.2579 -15.2572 -13.2531 -13.2186 -13.0194 -13.0135 -11.3973
   -11.3952 -11.2714 -10.7205 -10.7070 -10.2787 -10.2753 -10.2751 -10.2707
    -9.8065  -9.4841  -9.4768  -9.3013  -8.9500  -8.9491  -8.9204  -8.9186
    -8.9136  -8.9097  -8.7919  -8.7293  -7.9388  -7.7229  -7.7184  -7.7115
    -7.2901  -7.2695  -6.9211  -6.7594  -6.6466  -6.6067  -6.6067  -5.2381
    -5.1082  -4.7463  -4.7349  -4.7026  -4.4736  -4.1576  -3.9517  -0.9447
    -0.9094  -0.6643  -0.6504   0.2426   0.4456   0.5493   0.5735   0.6974
     0.8646   1.3648   1.4080   2.1943

          k =-0.1667 0.0722 0.0000 ( 31908 PWs)   bands (ev):

   -21.3449 -21.3414 -20.6185 -20.6163 -19.5386 -19.1915 -19.1789 -17.5911
   -17.5859 -17.1621 -17.1605 -16.9982 -16.9893 -16.8260 -16.8038 -15.2470
   -15.2467 -14.3127 -14.3100 -13.5745 -13.5700 -13.2437 -13.2171 -11.5199
   -11.5195 -11.2688 -10.8273 -10.8258 -10.6173 -10.6037  -9.8042  -9.7510
    -9.7373  -9.3892  -9.3730  -9.3009  -9.2634  -9.2546  -9.2190  -9.2185
    -8.8087  -8.7922  -8.4556  -8.4254  -7.9111  -7.9055  -7.6501  -7.6334
    -7.1959  -6.8276  -6.7516  -6.7327  -6.6476  -6.6427  -6.6069  -5.1938
    -5.0641  -4.9350  -4.8379  -4.7969  -4.7168  -4.4300  -4.2607  -0.5087
    -0.5080  -0.3047  -0.2572   0.1445   0.2721   0.5886   0.5956   0.6690
     0.9826   1.4932   1.5219   1.6901

          k =-0.1667-0.1443 0.0000 ( 31784 PWs)   bands (ev):

   -21.0773 -21.0706 -21.0663 -21.0659 -19.5341 -18.2392 -18.2342 -18.2321
   -18.2292 -17.3567 -17.3539 -17.3508 -17.3364 -16.8280 -16.8111 -14.4645
   -14.4577 -14.4576 -14.4485 -13.2475 -13.2211 -12.9229 -12.9211 -12.9170
   -12.9164 -11.2630 -10.3070 -10.2972 -10.2946 -10.2829  -9.9394  -9.9377
    -9.9188  -9.9129  -9.7961  -9.3016  -9.1354  -9.1294  -9.0823  -8.9943
    -8.6917  -8.6299  -8.3887  -8.3872  -8.3757  -8.3749  -7.0966  -7.0669
    -7.0598  -7.0527  -7.0525  -6.7838  -6.6553  -5.9018  -5.7729  -5.7558
    -5.7022  -5.1088  -4.9593  -4.9443  -4.9158  -4.4104  -4.3892  -0.2168
    -0.1540  -0.1104  -0.0997   0.4842   0.5314   0.7647   1.0423   1.0611
     1.0755   1.1627   1.1698   1.4156

          k =-0.0833 0.0722 0.0000 ( 31951 PWs)   bands (ev):

   -21.7087 -20.9792 -20.7378 -20.0196 -19.5753 -19.5002 -18.8371 -18.6061
   -18.1484 -17.4877 -16.8931 -16.8221 -16.8121 -16.6111 -16.2469 -15.1508
   -14.6615 -14.5634 -14.0465 -13.9263 -13.2491 -13.2456 -12.2321 -12.2188
   -11.9999 -11.7865 -11.5228 -11.3184 -10.7371 -10.3518  -9.7804  -9.7485
    -9.7228  -9.6935  -9.3693  -9.3047  -9.1640  -8.9913  -8.8370  -8.7785
    -8.6742  -8.6498  -8.5175  -8.4816  -8.1667  -7.8202  -7.5293  -7.3498
    -7.3444  -6.9816  -6.7788  -6.7529  -6.4401  -6.3929  -6.1572  -6.0548
    -5.7532  -5.2072  -4.7059  -4.5269  -4.4599  -3.9636  -3.7786  -1.0664
    -0.7405  -0.5568  -0.1450   0.2731   0.4737   0.5645   0.6901   0.9967
     1.4553   1.5987   1.6605   1.9269

     the Fermi energy is    -2.3733 ev

!    total energy              =    -351.25731577 Ry
     Harris-Foulkes estimate   =    -351.25731598 Ry
     estimated scf accuracy    <       0.00000029 Ry

     The total energy is the sum of the following terms:

     one-electron contribution =   -4809.91439768 Ry
     hartree contribution      =    2424.91063266 Ry
     xc contribution           =    -112.32643238 Ry
     ewald contribution        =    2146.07569228 Ry
     smearing contrib. (-TS)   =      -0.00281066 Ry

     convergence has been achieved in   5 iterations

     Forces acting on atoms (cartesian axes, Ry/au):

     atom    1 type  1   force =     0.00000851   -0.00048850    0.00052468
     atom    2 type  1   force =     0.00000016    0.00131346    0.00211540
     atom    3 type  1   force =    -0.00000016   -0.00013787   -0.00012242
     atom    4 type  1   force =    -0.00083328    0.00156293   -0.00399125
     atom    5 type  1   force =    -0.00083359   -0.00156293   -0.00399243
     atom    6 type  1   force =     0.00000016    0.00013787   -0.00012242
     atom    7 type  1   force =    -0.00000016   -0.00131346    0.00211540
     atom    8 type  1   force =     0.00000862    0.00048857    0.00052453
     atom    9 type  1   force =    -0.00000042    0.00053090    0.00135347
     atom   10 type  1   force =     0.00035523   -0.00014889   -0.00203608
     atom   11 type  1   force =     0.00072973   -0.00039454   -0.00642593
     atom   12 type  1   force =    -0.00000046   -0.00090006   -0.00911292
     atom   13 type  1   force =     0.00000046    0.00090006   -0.00911292
     atom   14 type  1   force =     0.00072947    0.00039511   -0.00642529
     atom   15 type  1   force =     0.00035481    0.00014874   -0.00203680
     atom   16 type  1   force =     0.00000042   -0.00053090    0.00135347
     atom   17 type  1   force =    -0.00000862   -0.00048857    0.00052453
     atom   18 type  1   force =    -0.00035481   -0.00014874   -0.00203680
     atom   19 type  1   force =    -0.00072947   -0.00039511   -0.00642529
     atom   20 type  1   force =     0.00083359    0.00156293   -0.00399243
     atom   21 type  1   force =     0.00083328   -0.00156293   -0.00399125
     atom   22 type  1   force =    -0.00072973    0.00039454   -0.00642593
     atom   23 type  1   force =    -0.00035523    0.00014889   -0.00203608
     atom   24 type  1   force =    -0.00000851    0.00048850    0.00052468
     atom   25 type  1   force =    -0.00449427    0.00594461    0.00900951
     atom   26 type  1   force =     0.00452604    0.00548331    0.00900981
     atom   27 type  1   force =     0.00743279    0.00026145    0.00896764
     atom   28 type  1   force =     0.00449427   -0.00594461    0.00900951
     atom   29 type  1   force =    -0.00452604   -0.00548331    0.00900981
     atom   30 type  1   force =    -0.00743279   -0.00026145    0.00896764
     atom   31 type  2   force =     0.00147737   -0.00237445    0.00082996
     atom   32 type  2   force =    -0.00147372   -0.00234027    0.00083017
     atom   33 type  2   force =    -0.00235329   -0.00001575    0.00097796
     atom   34 type  2   force =    -0.00147737    0.00237445    0.00082996
     atom   35 type  2   force =     0.00147372    0.00234027    0.00083017
     atom   36 type  2   force =     0.00235329    0.00001575    0.00097796

     Total force =     0.036095     Total SCF correction =     0.001401

     number of scf cycles    =   3
     number of bfgs steps    =   2

     energy   old            =    -351.2559780403 Ry
     energy   new            =    -351.2573157706 Ry

     CASE: energy  _new < energy  _old

     new trust radius        =       0.0195629311 bohr
     new conv_thr            =       0.0000009113 Ry


ATOMIC_POSITIONS (angstrom)
C        1.230523560   0.000774449   0.001113401
C       -0.000000256   0.710759944   0.003533946
C       -0.000000201   2.132165240   0.000960560
C        1.231113952   2.840369374  -0.009030490
C        1.231114015   4.261038697  -0.009030689
C        0.000000201   4.969243071   0.000960560
C        0.000000256   6.390648367   0.003533946
C        1.230523779   7.100633989   0.001113227
C        3.690000077   0.000790883   0.002771583
C        2.460175694   0.711801935  -0.004181716
C        2.460184914   2.131992829  -0.016855059
C        3.690000279   2.841538423  -0.021451721
C        3.689999721   4.259869888  -0.021451721
C        2.460185344   4.969415192  -0.016857595
C        2.460175831   6.389606459  -0.004182829
C        3.689999923   7.100617428   0.002771583
C        6.149476221   0.000774322   0.001113227
C        4.919824169   0.711801852  -0.004182829
C        4.919814656   2.131993119  -0.016857595
C        6.148885985   2.840369614  -0.009030689
C        6.148886048   4.261038937  -0.009030490
C        4.919815086   4.969415482  -0.016855059
C        4.919824306   6.389606376  -0.004181716
C        6.149476440   7.100633862   0.001113401
C        4.388211896   2.341417185   3.023028885
C        2.991824368   2.341638778   3.023025266
C        2.295622908   3.550617662   3.022187043
C        2.991788104   4.759991126   3.023028885
C        4.388175632   4.759769533   3.023025266
C        5.084377092   3.550790650   3.022187043
H        4.929760532   1.403474463   3.001103236
H        2.450243015   1.403556416   3.001102541
H        1.213327976   3.550664918   3.001650411
H        2.450239468   5.697933848   3.001103236
H        4.929756985   5.697851895   3.001102541
H        6.166672024   3.550743393   3.001650411



     Writing output data file batch_graph+benzene.save/
     NEW-OLD atomic charge density approx. for the potential

     negative rho (up, down):  2.098E-04 0.000E+00

     total cpu time spent up to now is      709.2 secs

     Self-consistent Calculation

     iteration #  1     ecut=    32.00 Ry     beta= 0.50
     Davidson diagonalization with overlap
     ethr =  1.00E-06,  avg # of iterations =  4.0

     negative rho (up, down):  2.098E-04 0.000E+00

     total cpu time spent up to now is      761.6 secs

     total energy              =    -351.25897697 Ry
     Harris-Foulkes estimate   =    -351.25931780 Ry
     estimated scf accuracy    <       0.00076351 Ry

     iteration #  2     ecut=    32.00 Ry     beta= 0.50
     Davidson diagonalization with overlap
     ethr =  6.06E-07,  avg # of iterations =  2.0

     negative rho (up, down):  2.107E-04 0.000E+00

     total cpu time spent up to now is      793.3 secs

     total energy              =    -351.25910832 Ry
     Harris-Foulkes estimate   =    -351.25913269 Ry
     estimated scf accuracy    <       0.00009514 Ry

     iteration #  3     ecut=    32.00 Ry     beta= 0.50
     Davidson diagonalization with overlap
     ethr =  7.55E-08,  avg # of iterations =  2.0

     negative rho (up, down):  2.101E-04 0.000E+00

     total cpu time spent up to now is      825.2 secs

     total energy              =    -351.25912299 Ry
     Harris-Foulkes estimate   =    -351.25912677 Ry
     estimated scf accuracy    <       0.00002276 Ry

     iteration #  4     ecut=    32.00 Ry     beta= 0.50
     Davidson diagonalization with overlap
     ethr =  1.81E-08,  avg # of iterations =  2.1

     negative rho (up, down):  2.114E-04 0.000E+00

     total cpu time spent up to now is      855.7 secs

     total energy              =    -351.25912659 Ry
     Harris-Foulkes estimate   =    -351.25912792 Ry
     estimated scf accuracy    <       0.00000646 Ry

     iteration #  5     ecut=    32.00 Ry     beta= 0.50
     Davidson diagonalization with overlap
     ethr =  5.12E-09,  avg # of iterations =  2.1

     negative rho (up, down):  2.099E-04 0.000E+00

     total cpu time spent up to now is      885.4 secs

     End of self-consistent calculation

          k = 0.0000 0.0000 0.0000 ( 31971 PWs)   bands (ev):

   -21.9272 -20.4725 -20.4706 -19.9969 -19.9928 -19.5432 -18.5836 -18.5833
   -18.5824 -18.5748 -16.8435 -16.8165 -16.7213 -15.6497 -15.0777 -15.0725
   -15.0720 -15.0704 -13.2915 -13.2547 -13.0996 -13.0963 -13.0950 -13.0915
   -12.9589 -12.9545 -11.3771 -10.2866 -10.2843 -10.0188  -9.9315  -9.9284
    -9.6859  -9.3113  -9.0993  -9.0990  -9.0939  -9.0933  -8.9582  -8.9154
    -8.9138  -8.7693  -8.6348  -8.3923  -8.2340  -7.8256  -7.7073  -7.6063
    -7.6049  -7.0530  -6.8791  -6.7956  -6.2109  -6.2094  -6.1221  -6.0842
    -5.6364  -5.6237  -4.8979  -4.4948  -4.3668  -2.3992  -2.3830  -2.3729
    -2.3582  -0.7406  -0.0447   0.4608   0.5350   0.6913   1.3363   1.3483
     1.3598   1.3610   1.5886   1.9804

          k = 0.0000 0.0722 0.0000 ( 31929 PWs)   bands (ev):

   -21.8354 -21.1048 -19.9090 -19.9032 -19.6740 -19.5374 -19.1933 -19.1845
   -17.8169 -17.8147 -17.6023 -16.8192 -16.8164 -15.9470 -15.9431 -14.6594
   -14.5448 -14.5443 -13.6992 -13.6975 -13.2829 -13.2488 -12.4370 -12.4351
   -12.3737 -12.3714 -11.5639 -11.3696 -10.7456 -10.7434 -10.1388 -10.1377
    -9.9182  -9.6796  -9.3121  -9.1154  -8.8675  -8.6762  -8.6407  -8.6052
    -8.5940  -8.4319  -8.4307  -8.3541  -8.1695  -7.7789  -7.6179  -7.4387
    -7.1074  -6.9599  -6.9340  -6.8667  -6.6808  -6.6772  -5.9888  -5.8273
    -5.4241  -5.3658  -5.2908  -4.4936  -4.4408  -3.4038  -3.3662  -1.3974
    -1.3959  -0.1390   0.0933   0.4032   0.4434   0.5386   0.5884   0.8209
     1.3232   1.7867   1.8619   2.2026

          k = 0.0000-0.1443 0.0000 ( 31940 PWs)   bands (ev):

   -21.5639 -21.5575 -19.6720 -19.6390 -19.6383 -19.6322 -19.5070 -18.6984
   -18.6933 -16.9411 -16.9306 -16.9194 -16.9154 -16.8074 -16.7910 -14.1667
   -14.1645 -14.1640 -14.1586 -13.2927 -13.2501 -13.1638 -13.1576 -11.5621
   -11.5617 -11.5559 -11.5512 -11.3692 -11.3376 -11.3367 -11.3357 -11.3264
    -9.6741  -9.6219  -9.6070  -9.3120  -8.7015  -8.6297  -8.6028  -8.5953
    -8.2978  -8.2961  -8.2883  -8.2851  -7.6232  -7.3559  -7.3375  -7.3284
    -6.9887  -6.9838  -6.9599  -6.8088  -6.7403  -6.3591  -6.3273  -6.3152
    -6.2379  -4.7425  -4.6084  -4.4145  -4.3978  -4.3134  -4.1479  -0.4917
    -0.4628  -0.4502  -0.4483   0.3272   0.3738   0.5208   0.8947   1.1889
     1.2598   1.4218   1.5241   2.0686

          k = 0.0833 0.0000 0.0000 ( 31951 PWs)   bands (ev):

   -21.8048 -20.8329 -20.3530 -20.3508 -19.5597 -19.3997 -19.3827 -18.9292
   -17.5746 -17.5725 -16.8321 -16.8292 -16.6282 -16.2876 -15.8018 -15.5486
   -14.8973 -14.6399 -14.6376 -14.1465 -13.2538 -13.2487 -12.4214 -12.1797
   -11.7267 -11.5057 -11.5047 -11.3324 -10.1938  -9.9569  -9.9554  -9.8826
    -9.7385  -9.4664  -9.3094  -9.1713  -9.1710  -8.9963  -8.9944  -8.8892
    -8.7646  -8.7482  -8.6054  -8.2290  -8.1124  -8.0610  -8.0597  -7.6748
    -7.2899  -7.0831  -6.8680  -6.7568  -6.7437  -6.4687  -6.1095  -5.8842
    -5.2553  -5.2549  -4.7963  -4.5310  -4.3361  -3.6629  -3.3769  -1.4272
    -1.1041  -0.7672  -0.0377  -0.0295   0.1698   0.5201   0.5293   0.8652
     1.5024   1.7467   2.1267   2.1976

          k = 0.0833 0.0722 0.0000 ( 31951 PWs)   bands (ev):

   -21.7132 -20.9838 -20.7423 -20.0240 -19.5812 -19.5096 -18.8419 -18.6109
   -18.1531 -17.4923 -16.8973 -16.8268 -16.8187 -16.6168 -16.2518 -15.1556
   -14.6663 -14.5684 -14.0515 -13.9310 -13.2527 -13.2495 -12.2370 -12.2237
   -12.0048 -11.7915 -11.5279 -11.3264 -10.7421 -10.3568  -9.7823  -9.7505
    -9.7250  -9.6983  -9.3742  -9.3096  -9.1690  -8.9941  -8.8377  -8.7837
    -8.6774  -8.6548  -8.5196  -8.4873  -8.1718  -7.8216  -7.5346  -7.3547
    -7.3473  -6.9972  -6.7822  -6.7496  -6.4455  -6.3973  -6.1609  -6.0600
    -5.7570  -5.2073  -4.7089  -4.5330  -4.4686  -3.9742  -3.7845  -1.0707
    -0.7452  -0.5622  -0.1448   0.2753   0.4771   0.5639   0.6824   0.9935
     1.4577   1.6004   1.6568   1.9214

          k = 0.0833-0.1443 0.0000 ( 31876 PWs)   bands (ev):

   -21.4420 -21.4357 -20.4741 -20.4692 -19.5470 -18.5861 -18.5839 -18.5784
   -18.5760 -17.6780 -17.6725 -16.8292 -16.8185 -16.3251 -16.3208 -15.2684
   -15.2640 -13.2598 -13.2575 -13.1033 -13.0934 -13.0897 -13.0876 -13.0207
   -13.0205 -11.4057 -11.4015 -11.3203 -10.7157 -10.7143  -9.9375  -9.9322
    -9.7290  -9.4914  -9.4632  -9.3092  -9.1034  -9.0984  -9.0971  -9.0923
    -8.7877  -8.7114  -8.3094  -8.2722  -7.6061  -7.5937  -7.2861  -7.2680
    -7.1320  -6.7920  -6.7810  -6.6223  -6.6193  -6.2304  -6.1546  -6.1486
    -6.1149  -5.2233  -5.1362  -4.5176  -4.4097  -4.1336  -4.1331  -0.9160
    -0.9088   0.4298   0.4318   0.4343   0.4391   0.5112   1.0704   1.3403
     1.3483   1.3746   1.3843   1.4161

          k =-0.1667 0.0000 0.0000 ( 31854 PWs)   bands (ev):

   -21.4401 -21.4377 -20.0020 -19.9952 -19.9921 -19.9896 -19.5325 -17.6779
   -17.6726 -16.8408 -16.8283 -16.7443 -16.7406 -16.3289 -16.3144 -15.6533
   -15.6507 -15.2635 -15.2616 -13.2570 -13.2219 -13.0241 -13.0191 -11.4019
   -11.4005 -11.2800 -10.7251 -10.7120 -10.2822 -10.2815 -10.2805 -10.2762
    -9.8045  -9.4841  -9.4800  -9.3061  -8.9553  -8.9534  -8.9255  -8.9233
    -8.9180  -8.9157  -8.7924  -8.7349  -7.9357  -7.7272  -7.7205  -7.7144
    -7.2935  -7.2758  -6.9441  -6.7617  -6.6442  -6.6133  -6.6108  -5.2370
    -5.1126  -4.7507  -4.7391  -4.7002  -4.4834  -4.1604  -3.9685  -0.9460
    -0.9159  -0.6702  -0.6568   0.2507   0.4404   0.5523   0.5748   0.6854
     0.8666   1.3618   1.4056   2.1951

          k =-0.1667 0.0722 0.0000 ( 31908 PWs)   bands (ev):

   -21.3488 -21.3465 -20.6225 -20.6213 -19.5487 -19.1955 -19.1850 -17.5959
   -17.5904 -17.1669 -17.1644 -17.0029 -16.9937 -16.8315 -16.8112 -15.2521
   -15.2514 -14.3178 -14.3149 -13.5790 -13.5748 -13.2487 -13.2204 -11.5253
   -11.5242 -11.2772 -10.8327 -10.8305 -10.6219 -10.6088  -9.8020  -9.7556
    -9.7425  -9.3890  -9.3767  -9.3057  -9.2677  -9.2602  -9.2248  -9.2231
    -8.8094  -8.7966  -8.4565  -8.4286  -7.9157  -7.9110  -7.6538  -7.6397
    -7.2050  -6.8315  -6.7536  -6.7418  -6.6517  -6.6490  -6.6079  -5.1924
    -5.0682  -4.9318  -4.8414  -4.8012  -4.7202  -4.4411  -4.2790  -0.5145
    -0.5129  -0.3053  -0.2632   0.1490   0.2668   0.5882   0.5912   0.6676
     0.9845   1.4895   1.5191   1.6943

          k =-0.1667-0.1443 0.0000 ( 31784 PWs)   bands (ev):

   -21.0801 -21.0751 -21.0721 -21.0710 -19.5446 -18.2441 -18.2386 -18.2374
   -18.2337 -17.3595 -17.3593 -17.3550 -17.3425 -16.8333 -16.8179 -14.4695
   -14.4634 -14.4614 -14.4532 -13.2521 -13.2240 -12.9278 -12.9265 -12.9230
   -12.9208 -11.2714 -10.3094 -10.3040 -10.2976 -10.2899  -9.9443  -9.9441
    -9.9229  -9.9175  -9.7945  -9.3067  -9.1326  -9.1318  -9.0868  -8.9975
    -8.6925  -8.6340  -8.3921  -8.3917  -8.3817  -8.3813  -7.1129  -7.0723
    -7.0668  -7.0576  -7.0568  -6.7862  -6.6529  -5.8973  -5.7764  -5.7585
    -5.7105  -5.1069  -4.9631  -4.9486  -4.9207  -4.4225  -4.4043  -0.2134
    -0.1615  -0.1174  -0.1032   0.4926   0.5254   0.7658   1.0367   1.0565
     1.0685   1.1568   1.1726   1.4182

          k =-0.0833 0.0722 0.0000 ( 31951 PWs)   bands (ev):

   -21.7132 -20.9838 -20.7423 -20.0240 -19.5812 -19.5096 -18.8419 -18.6109
   -18.1531 -17.4923 -16.8972 -16.8272 -16.8184 -16.6168 -16.2518 -15.1557
   -14.6663 -14.5684 -14.0515 -13.9310 -13.2522 -13.2500 -12.2370 -12.2237
   -12.0048 -11.7915 -11.5279 -11.3264 -10.7421 -10.3568  -9.7823  -9.7505
    -9.7250  -9.6983  -9.3742  -9.3096  -9.1690  -8.9941  -8.8377  -8.7837
    -8.6775  -8.6548  -8.5195  -8.4873  -8.1718  -7.8216  -7.5346  -7.3547
    -7.3473  -6.9973  -6.7807  -6.7510  -6.4455  -6.3972  -6.1609  -6.0600
    -5.7571  -5.2073  -4.7086  -4.5326  -4.4693  -3.9742  -3.7845  -1.0707
    -0.7452  -0.5622  -0.1448   0.2753   0.4768   0.5644   0.6822   0.9935
     1.4576   1.6004   1.6568   1.9214

     the Fermi energy is    -2.3783 ev

!    total energy              =    -351.25912756 Ry
     Harris-Foulkes estimate   =    -351.25912804 Ry
     estimated scf accuracy    <       0.00000083 Ry

     The total energy is the sum of the following terms:

     one-electron contribution =   -4804.75888196 Ry
     hartree contribution      =    2422.31323403 Ry
     xc contribution           =    -112.33147653 Ry
     ewald contribution        =    2143.52080937 Ry
     smearing contrib. (-TS)   =      -0.00281247 Ry

     convergence has been achieved in   5 iterations

     Forces acting on atoms (cartesian axes, Ry/au):

     atom    1 type  1   force =    -0.00018492   -0.00045057    0.00075197
     atom    2 type  1   force =     0.00000029    0.00048714    0.00116835
     atom    3 type  1   force =    -0.00000025   -0.00027903   -0.00095016
     atom    4 type  1   force =    -0.00108296    0.00130723   -0.00372733
     atom    5 type  1   force =    -0.00108279   -0.00130665   -0.00372891
     atom    6 type  1   force =     0.00000025    0.00027903   -0.00095016
     atom    7 type  1   force =    -0.00000029   -0.00048714    0.00116835
     atom    8 type  1   force =    -0.00018516    0.00045068    0.00075183
     atom    9 type  1   force =    -0.00000056   -0.00017052    0.00027881
     atom   10 type  1   force =     0.00011141   -0.00078160   -0.00185084
     atom   11 type  1   force =     0.00050381   -0.00096460   -0.00512448
     atom   12 type  1   force =    -0.00000186   -0.00038184   -0.00840862
     atom   13 type  1   force =     0.00000186    0.00038184   -0.00840862
     atom   14 type  1   force =     0.00050156    0.00096548   -0.00512269
     atom   15 type  1   force =     0.00011123    0.00078112   -0.00185140
     atom   16 type  1   force =     0.00000056    0.00017052    0.00027881
     atom   17 type  1   force =     0.00018516   -0.00045068    0.00075183
     atom   18 type  1   force =    -0.00011123   -0.00078112   -0.00185140
     atom   19 type  1   force =    -0.00050156   -0.00096548   -0.00512269
     atom   20 type  1   force =     0.00108279    0.00130665   -0.00372891
     atom   21 type  1   force =     0.00108296   -0.00130723   -0.00372733
     atom   22 type  1   force =    -0.00050381    0.00096460   -0.00512448
     atom   23 type  1   force =    -0.00011141    0.00078160   -0.00185084
     atom   24 type  1   force =     0.00018492    0.00045057    0.00075197
     atom   25 type  1   force =    -0.00448904    0.00564884    0.00777528
     atom   26 type  1   force =     0.00456788    0.00491706    0.00777403
     atom   27 type  1   force =     0.00632642    0.00044122    0.00795944
     atom   28 type  1   force =     0.00448904   -0.00564884    0.00777528
     atom   29 type  1   force =    -0.00456788   -0.00491706    0.00777403
     atom   30 type  1   force =    -0.00632642   -0.00044122    0.00795944
     atom   31 type  2   force =     0.00209374   -0.00334722    0.00141353
     atom   32 type  2   force =    -0.00203743   -0.00321273    0.00141621
     atom   33 type  2   force =    -0.00365067   -0.00002073    0.00147501
     atom   34 type  2   force =    -0.00209374    0.00334722    0.00141353
     atom   35 type  2   force =     0.00203743    0.00321273    0.00141621
     atom   36 type  2   force =     0.00365067    0.00002073    0.00147501

     Total force =     0.032949     Total SCF correction =     0.002509

     number of scf cycles    =   4
     number of bfgs steps    =   3

     energy   old            =    -351.2573157706 Ry
     energy   new            =    -351.2591275603 Ry

     CASE: energy  _new < energy  _old

     new trust radius        =       0.0293443966 bohr
     new conv_thr            =       0.0000008409 Ry


ATOMIC_POSITIONS (angstrom)
C        1.230565231   0.001036961   0.002174904
C       -0.000000202   0.711104875   0.005544082
C       -0.000000425   2.132673126   0.000555636
C        1.231140931   2.840564201  -0.015551737
C        1.231141183   4.260844070  -0.015552647
C        0.000000425   4.968735185   0.000555636
C        0.000000202   6.390303436   0.005544082
C        1.230565375   7.100371590   0.002174545
C        3.689999891   0.000744675   0.003867982
C        2.460254087   0.712039870  -0.007238705
C        2.460316474   2.132167470  -0.027749214
C        3.689999479   2.841894458  -0.036435099
C        3.690000521   4.259513853  -0.036435099
C        2.460315882   4.969240782  -0.027751995
C        2.460254417   6.389368447  -0.007240454
C        3.690000109   7.100663636   0.003867982
C        6.149434625   0.001036721   0.002174545
C        4.919745583   0.712039864  -0.007240454
C        4.919684118   2.132167529  -0.027751995
C        6.148858817   2.840564241  -0.015552647
C        6.148859069   4.260844110  -0.015551737
C        4.919683526   4.969240841  -0.027749214
C        4.919745913   6.389368442  -0.007238705
C        6.149434769   7.100371350   0.002174904
C        4.387310215   2.342180355   3.038512274
C        2.992681656   2.342166700   3.038504919
C        2.297293766   3.550697153   3.037424707
C        2.992689785   4.759227956   3.038512274
C        4.387318344   4.759241611   3.038504919
C        5.082706234   3.550711158   3.037424707
H        4.929097820   1.404833147   3.002644173
H        2.450866472   1.404857945   3.002645276
H        1.216073658   3.550657552   3.003471354
H        2.450902180   5.696575164   3.002644173
H        4.929133528   5.696550366   3.002645276
H        6.163926342   3.550750759   3.003471354



     Writing output data file batch_graph+benzene.save/
     NEW-OLD atomic charge density approx. for the potential

     negative rho (up, down):  2.112E-04 0.000E+00

     total cpu time spent up to now is      901.7 secs

     Self-consistent Calculation

     iteration #  1     ecut=    32.00 Ry     beta= 0.50
     Davidson diagonalization with overlap
     ethr =  1.00E-06,  avg # of iterations =  4.0

     negative rho (up, down):  2.106E-04 0.000E+00

     total cpu time spent up to now is      961.8 secs

     total energy              =    -351.26108051 Ry
     Harris-Foulkes estimate   =    -351.26185374 Ry
     estimated scf accuracy    <       0.00173009 Ry

     iteration #  2     ecut=    32.00 Ry     beta= 0.50
     Davidson diagonalization with overlap
     ethr =  1.37E-06,  avg # of iterations =  3.1

     negative rho (up, down):  2.123E-04 0.000E+00

     total cpu time spent up to now is      995.1 secs

     total energy              =    -351.26138144 Ry
     Harris-Foulkes estimate   =    -351.26143068 Ry
     estimated scf accuracy    <       0.00020630 Ry

     iteration #  3     ecut=    32.00 Ry     beta= 0.50
     Davidson diagonalization with overlap
     ethr =  1.64E-07,  avg # of iterations =  2.0

     negative rho (up, down):  2.144E-04 0.000E+00

     total cpu time spent up to now is     1026.3 secs

     total energy              =    -351.26141461 Ry
     Harris-Foulkes estimate   =    -351.26141569 Ry
     estimated scf accuracy    <       0.00003889 Ry

     iteration #  4     ecut=    32.00 Ry     beta= 0.50
     Davidson diagonalization with overlap
     ethr =  3.09E-08,  avg # of iterations =  2.0

     negative rho (up, down):  2.184E-04 0.000E+00

     total cpu time spent up to now is     1057.2 secs

     total energy              =    -351.26142021 Ry
     Harris-Foulkes estimate   =    -351.26141940 Ry
     estimated scf accuracy    <       0.00000430 Ry

     iteration #  5     ecut=    32.00 Ry     beta= 0.50
     Davidson diagonalization with overlap
     ethr =  3.41E-09,  avg # of iterations =  2.1

     negative rho (up, down):  2.104E-04 0.000E+00

     total cpu time spent up to now is     1087.6 secs

     End of self-consistent calculation

          k = 0.0000 0.0000 0.0000 ( 31971 PWs)   bands (ev):

   -21.9337 -20.4792 -20.4768 -20.0031 -19.9992 -19.5572 -18.5902 -18.5894
   -18.5887 -18.5831 -16.8488 -16.8195 -16.7312 -15.6568 -15.0843 -15.0802
   -15.0794 -15.0771 -13.2937 -13.2538 -13.1062 -13.1037 -13.1029 -13.0985
   -12.9659 -12.9618 -11.3825 -10.2937 -10.2911 -10.0230  -9.9386  -9.9354
    -9.6776  -9.3178  -9.1064  -9.1059  -9.1019  -9.1008  -8.9652  -8.9235
    -8.9213  -8.7740  -8.6343  -8.3902  -8.2368  -7.8287  -7.7109  -7.6130
    -7.6120  -7.0775  -6.8765  -6.7913  -6.2128  -6.2113  -6.1268  -6.0985
    -5.6432  -5.6319  -4.8952  -4.5031  -4.3889  -2.4041  -2.3902  -2.3798
    -2.3680  -0.7430  -0.0414   0.4601   0.5411   0.6859   1.3266   1.3395
     1.3532   1.3540   1.5875   1.9841

          k = 0.0000 0.0722 0.0000 ( 31929 PWs)   bands (ev):

   -21.8419 -21.1113 -19.9150 -19.9097 -19.6801 -19.5513 -19.1998 -19.1925
   -17.8234 -17.8218 -17.6089 -16.8276 -16.8195 -15.9536 -15.9508 -14.6665
   -14.5521 -14.5511 -13.7062 -13.7043 -13.2859 -13.2484 -12.4439 -12.4423
   -12.3809 -12.3785 -11.5714 -11.3751 -10.7527 -10.7503 -10.1457 -10.1454
    -9.9210  -9.6714  -9.3185  -9.1183  -8.8746  -8.6790  -8.6404  -8.6130
    -8.6008  -8.4398  -8.4380  -8.3621  -8.1767  -7.7772  -7.6211  -7.4432
    -7.1195  -6.9670  -6.9348  -6.8671  -6.6973  -6.6783  -5.9969  -5.8344
    -5.4223  -5.3691  -5.2978  -4.5019  -4.4593  -3.4094  -3.3769  -1.4039
    -1.4036  -0.1371   0.0968   0.3986   0.4382   0.5416   0.5791   0.8154
     1.3263   1.7842   1.8584   2.1999

          k = 0.0000-0.1443 0.0000 ( 31940 PWs)   bands (ev):

   -21.5685 -21.5659 -19.6781 -19.6435 -19.6430 -19.6406 -19.5233 -18.7064
   -18.6990 -16.9449 -16.9370 -16.9275 -16.9207 -16.8117 -16.8022 -14.1729
   -14.1712 -14.1697 -14.1678 -13.2949 -13.2496 -13.1694 -13.1675 -11.5698
   -11.5689 -11.5625 -11.5579 -11.3742 -11.3462 -11.3424 -11.3409 -11.3362
    -9.6659  -9.6227  -9.6116  -9.3184  -8.7047  -8.6285  -8.6073  -8.6051
    -8.3043  -8.3020  -8.2976  -8.2939  -7.6215  -7.3598  -7.3400  -7.3327
    -6.9959  -6.9952  -6.9689  -6.8223  -6.7356  -6.3588  -6.3339  -6.3228
    -6.2489  -4.7408  -4.6105  -4.4181  -4.4057  -4.3249  -4.1726  -0.4984
    -0.4681  -0.4593  -0.4551   0.3295   0.3809   0.5262   0.8951   1.1836
     1.2600   1.4151   1.5085   2.0660

          k = 0.0833 0.0000 0.0000 ( 31951 PWs)   bands (ev):

   -21.8114 -20.8394 -20.3597 -20.3570 -19.5712 -19.4059 -19.3922 -18.9361
   -17.5809 -17.5798 -16.8386 -16.8321 -16.6368 -16.2947 -15.8089 -15.5557
   -14.9046 -14.6463 -14.6450 -14.1534 -13.2569 -13.2486 -12.4285 -12.1865
   -11.7338 -11.5123 -11.5122 -11.3384 -10.2012  -9.9647  -9.9640  -9.8841
    -9.7301  -9.4735  -9.3156  -9.1789  -9.1784  -9.0033  -9.0025  -8.8892
    -8.7713  -8.7530  -8.6039  -8.2297  -8.1155  -8.0676  -8.0672  -7.6829
    -7.2978  -7.0865  -6.8861  -6.7579  -6.7390  -6.4782  -6.1166  -5.8923
    -5.2601  -5.2580  -4.7934  -4.5379  -4.3565  -3.6714  -3.3872  -1.4342
    -1.1095  -0.7708  -0.0452  -0.0353   0.1717   0.5191   0.5324   0.8600
     1.5057   1.7468   2.1238   2.1948

          k = 0.0833 0.0722 0.0000 ( 31951 PWs)   bands (ev):

   -21.7197 -20.9903 -20.7488 -20.0304 -19.5891 -19.5221 -18.8487 -18.6177
   -18.1599 -17.4989 -16.9030 -16.8305 -16.8266 -16.6247 -16.2590 -15.1626
   -14.6732 -14.5756 -14.0588 -13.9379 -13.2554 -13.2498 -12.2441 -12.2309
   -12.0117 -11.7987 -11.5354 -11.3324 -10.7493 -10.3640  -9.7853  -9.7523
    -9.7219  -9.7057  -9.3812  -9.3159  -9.1763  -8.9970  -8.8365  -8.7913
    -8.6795  -8.6619  -8.5213  -8.4954  -8.1792  -7.8234  -7.5423  -7.3618
    -7.3508  -7.0200  -6.7768  -6.7499  -6.4535  -6.4029  -6.1661  -6.0676
    -5.7625  -5.2072  -4.7127  -4.5396  -4.4829  -3.9888  -3.7927  -1.0769
    -0.7522  -0.5701  -0.1455   0.2784   0.4837   0.5612   0.6716   0.9881
     1.4609   1.6036   1.6509   1.9131

          k = 0.0833-0.1443 0.0000 ( 31876 PWs)   bands (ev):

   -21.4467 -21.4441 -20.4787 -20.4775 -19.5604 -18.5919 -18.5908 -18.5851
[...]

     CASE: energy  _new < energy  _old

     new trust radius        =       0.0002626468 bohr
     new conv_thr            =       0.0000000100 Ry


ATOMIC_POSITIONS (angstrom)
C        1.230091594   0.000360228  -0.171642038
C       -0.000006623   0.710446074  -0.174030247
C       -0.000005202   2.131205226  -0.187565267
C        1.230400925   2.840603385  -0.196065441
C        1.230427998   4.260791289  -0.196066224
C        0.000005202   4.970203085  -0.187565267
C        0.000006623   6.390962237  -0.174030247
C        1.230116769   7.101061820  -0.171641872
C        3.689994119   0.000331981  -0.174844622
C        2.460317556   0.710735531  -0.180845603
C        2.460530566   2.131009770  -0.197508185
C        3.690000261   2.840733731  -0.206074997
C        3.689999739   4.260674580  -0.206074997
C        2.460549047   4.970404416  -0.197509049
C        2.460336995   6.390668069  -0.180845802
C        3.690005881   7.101076330  -0.174844622
C        6.149883231   0.000346491  -0.171641872
C        4.919663005   0.710740242  -0.180845802
C        4.919450953   2.131003895  -0.197509049
C        6.149572002   2.840617022  -0.196066224
C        6.149599075   4.260804926  -0.196065441
C        4.919469434   4.970398541  -0.197508185
C        4.919682444   6.390672780  -0.180845603
C        6.149908406   7.101048083  -0.171642038
C        4.387460649   2.341593404   3.376505186
C        2.992488507   2.341618310   3.376505916
C        2.296674750   3.550733332   3.376722945
C        2.992539351   4.759814907   3.376505186
C        4.387511493   4.759790001   3.376505916
C        5.083325250   3.550674979   3.376722945
H        4.931824144   1.400992661   3.367900649
H        2.448084557   1.401043212   3.367889034
H        1.210881745   3.550750901   3.369115616
H        2.448175856   5.700415650   3.367900649
H        4.931915443   5.700365099   3.367889034
H        6.169118255   3.550657410   3.369115616



     Writing output data file batch_graph+benzene.save/
     NEW-OLD atomic charge density approx. for the potential

     negative rho (up, down):  2.031E-04 0.000E+00

     total cpu time spent up to now is    10053.2 secs

     Self-consistent Calculation

     iteration #  1     ecut=    32.00 Ry     beta= 0.50
     Davidson diagonalization with overlap
     ethr =  1.00E-06,  avg # of iterations =  2.0

     Threshold (ethr) on eigenvalues was too large:
     Diagonalizing with lowered threshold

     Davidson diagonalization with overlap
     ethr =  9.85E-11,  avg # of iterations =  3.0

     negative rho (up, down):  2.031E-04 0.000E+00

     total cpu time spent up to now is    10115.0 secs

     total energy              =    -351.28190285 Ry
     Harris-Foulkes estimate   =    -351.28190294 Ry
     estimated scf accuracy    <       0.00000021 Ry

     iteration #  2     ecut=    32.00 Ry     beta= 0.50
     Davidson diagonalization with overlap
     ethr =  1.68E-10,  avg # of iterations =  2.0

     negative rho (up, down):  2.031E-04 0.000E+00

     total cpu time spent up to now is    10148.2 secs

     total energy              =    -351.28190289 Ry
     Harris-Foulkes estimate   =    -351.28190290 Ry
     estimated scf accuracy    <       0.00000004 Ry

     iteration #  3     ecut=    32.00 Ry     beta= 0.50
     Davidson diagonalization with overlap
     ethr =  3.33E-11,  avg # of iterations =  2.2

     negative rho (up, down):  2.031E-04 0.000E+00

     total cpu time spent up to now is    10180.2 secs

     total energy              =    -351.28190291 Ry
     Harris-Foulkes estimate   =    -351.28190290 Ry
     estimated scf accuracy    <       0.00000001 Ry

     iteration #  4     ecut=    32.00 Ry     beta= 0.50
     Davidson diagonalization with overlap
     ethr =  9.64E-12,  avg # of iterations =  2.6

     negative rho (up, down):  2.031E-04 0.000E+00

     total cpu time spent up to now is    10210.3 secs

     End of self-consistent calculation

          k = 0.0000 0.0000 0.0000 ( 31971 PWs)   bands (ev):

   -21.8587 -20.4028 -20.4027 -19.9264 -19.9234 -19.5719 -18.5181 -18.5155
   -18.5145 -18.5126 -16.8343 -16.8228 -16.6778 -15.5864 -15.0115 -15.0087
   -15.0086 -15.0080 -13.2833 -13.2445 -13.0349 -13.0348 -13.0334 -13.0334
   -12.8946 -12.8944 -11.3505 -10.2221 -10.2196  -9.9397  -9.8697  -9.8670
    -9.6535  -9.3359  -9.0389  -9.0386  -9.0328  -9.0316  -8.8949  -8.8550
    -8.8547  -8.7286  -8.6103  -8.2318  -8.1961  -7.6900  -7.6406  -7.5422
    -7.5419  -7.2750  -6.9025  -6.7711  -6.1009  -6.0995  -6.0745  -6.0707
    -5.5723  -5.5671  -4.7517  -4.6112  -4.5530  -2.3102  -2.3081  -2.3072
    -2.3066  -0.6207  -0.1473   0.3667   0.4740   0.6698   1.4125   1.4190
     1.4316   1.4318   1.4732   1.8646

          k = 0.0000 0.0722 0.0000 ( 31929 PWs)   bands (ev):

   -21.7669 -21.0362 -19.8371 -19.8339 -19.6008 -19.5682 -19.1260 -19.1241
   -17.7505 -17.7482 -17.5349 -16.8336 -16.8227 -15.8823 -15.8804 -14.5960
   -14.4805 -14.4801 -13.6339 -13.6327 -13.2818 -13.2450 -12.3736 -12.3728
   -12.3097 -12.3082 -11.5025 -11.3459 -10.6815 -10.6795 -10.0770 -10.0759
    -9.8290  -9.6488  -9.3365  -8.9757  -8.8042  -8.7142  -8.6087  -8.5437
    -8.5436  -8.3717  -8.3714  -8.2952  -8.1061  -7.6086  -7.5421  -7.3579
    -7.2092  -6.8992  -6.8962  -6.8178  -6.7322  -6.7118  -5.9317  -5.7631
    -5.2820  -5.2726  -5.2094  -4.6099  -4.6085  -3.3259  -3.3218  -1.3239
    -1.3237  -0.0214   0.0274   0.3953   0.4644   0.5232   0.5371   0.7988
     1.2281   1.6763   1.8337   2.2103

          k = 0.0000-0.1443 0.0000 ( 31940 PWs)   bands (ev):

   -21.4988 -21.4856 -19.5888 -19.5755 -19.5725 -19.5601 -19.5454 -18.6331
   -18.6273 -16.8608 -16.8561 -16.8549 -16.8478 -16.8244 -16.8202 -14.1041
   -14.1023 -14.0949 -14.0948 -13.2812 -13.2459 -13.1037 -13.1037 -11.4983
   -11.4959 -11.4910 -11.4900 -11.3415 -11.2766 -11.2736 -11.2722 -11.2716
    -9.6443  -9.5111  -9.4986  -9.3370  -8.7339  -8.6065  -8.5414  -8.5314
    -8.2352  -8.2346  -8.2297  -8.2285  -7.4572  -7.2576  -7.2546  -7.2395
    -7.1162  -6.9246  -6.9085  -6.8939  -6.7751  -6.2630  -6.2517  -6.2316
    -6.2191  -4.6747  -4.6304  -4.3299  -4.3276  -4.3195  -4.2850  -0.3918
    -0.3899  -0.3847  -0.3813   0.2210   0.3650   0.4549   0.8113   1.1705
     1.2300   1.4920   1.5255   1.9872

          k = 0.0833 0.0000 0.0000 ( 31951 PWs)   bands (ev):

   -21.7363 -20.7643 -20.2830 -20.2829 -19.5713 -19.3320 -19.3310 -18.8639
   -17.5071 -17.5069 -16.8343 -16.8336 -16.5735 -16.2244 -15.7379 -15.4854
   -14.8349 -14.5741 -14.5738 -14.0812 -13.2527 -13.2459 -12.3590 -12.1156
   -11.6624 -11.4416 -11.4415 -11.3102 -10.1328  -9.8966  -9.8952  -9.7910
    -9.7066  -9.4031  -9.3332  -9.1104  -9.1103  -8.9349  -8.9349  -8.7662
    -8.7231  -8.6974  -8.6074  -8.0906  -8.0581  -7.9968  -7.9967  -7.6167
    -7.3314  -6.9770  -6.9363  -6.7728  -6.7606  -6.4265  -6.0453  -5.8273
    -5.1668  -5.1647  -4.6842  -4.6287  -4.4714  -3.6086  -3.3312  -1.3533
    -1.0200  -0.6585   0.0242   0.0471   0.0744   0.4248   0.4522   0.8431
     1.3888   1.6340   2.0458   2.2367

          k = 0.0833 0.0722 0.0000 ( 31951 PWs)   bands (ev):

   -21.6447 -20.9152 -20.6737 -19.9541 -19.5715 -19.4779 -18.7763 -18.5451
   -18.0869 -17.4247 -16.8375 -16.8339 -16.8192 -16.5586 -16.1883 -15.0911
   -14.6014 -14.5051 -13.9888 -13.8659 -13.2515 -13.2468 -12.1731 -12.1608
   -11.9406 -11.7290 -11.4665 -11.3060 -10.6787 -10.2941  -9.7034  -9.6852
    -9.6766  -9.6397  -9.3338  -9.3107  -9.1059  -8.8481  -8.7467  -8.7236
    -8.7006  -8.5915  -8.5143  -8.4293  -8.1114  -7.7067  -7.4753  -7.3292
    -7.2909  -7.1115  -6.7780  -6.7670  -6.3839  -6.3400  -6.0790  -6.0001
    -5.6818  -5.0752  -4.6580  -4.6188  -4.5641  -3.9697  -3.7267  -0.9915
    -0.6700  -0.4934  -0.0159   0.1755   0.4342   0.4567   0.7217   0.9701
     1.3625   1.4973   1.7322   1.8857

          k = 0.0833-0.1443 0.0000 ( 31876 PWs)   bands (ev):

   -21.3770 -21.3638 -20.4092 -20.3963 -19.5705 -18.5219 -18.5184 -18.5122
   -18.5085 -17.6112 -17.6056 -16.8341 -16.8339 -16.2617 -16.2560 -15.2021
   -15.2013 -13.2508 -13.2480 -13.0381 -13.0332 -13.0331 -13.0306 -12.9599
   -12.9558 -11.3435 -11.3363 -11.3016 -10.6547 -10.6518  -9.8738  -9.8685
    -9.6985  -9.3658  -9.3564  -9.3343  -9.0416  -9.0372  -9.0329  -9.0311
    -8.7380  -8.7325  -8.2136  -8.2114  -7.5432  -7.5369  -7.3078  -7.2222
    -7.2125  -6.7881  -6.7691  -6.5613  -6.5558  -6.0956  -6.0914  -6.0847
    -6.0783  -5.0764  -5.0578  -4.6258  -4.5971  -4.0793  -4.0697  -0.8456
    -0.8376   0.3596   0.4196   0.4322   0.5099   0.5166   1.0009   1.3448
     1.3923   1.4192   1.4253   1.4358

          k =-0.1667 0.0000 0.0000 ( 31854 PWs)   bands (ev):

   -21.3745 -21.3663 -19.9286 -19.9285 -19.9215 -19.9206 -19.5675 -17.6085
   -17.6082 -16.8456 -16.8333 -16.6779 -16.6775 -16.2638 -16.2558 -15.5883
   -15.5879 -15.2037 -15.1958 -13.2480 -13.2223 -12.9598 -12.9595 -11.3383
   -11.3381 -11.2641 -10.6592 -10.6498 -10.2202 -10.2188 -10.2185 -10.2168
    -9.7724  -9.3672  -9.3567  -9.3304  -8.8939  -8.8939  -8.8603  -8.8592
    -8.8563  -8.8552  -8.8297  -8.7177  -7.7246  -7.6503  -7.6486  -7.6384
    -7.2345  -7.2253  -7.2155  -6.7679  -6.6555  -6.5579  -6.5517  -5.0834
    -5.0467  -4.6759  -4.6732  -4.6560  -4.6236  -4.0847  -4.0449  -0.8466
    -0.8423  -0.6029  -0.6001   0.3798   0.4700   0.4792   0.5126   0.5615
     0.7535   1.3437   1.3722   2.1122

          k =-0.1667 0.0722 0.0000 ( 31908 PWs)   bands (ev):

   -21.2833 -21.2751 -20.5572 -20.5492 -19.5690 -19.1307 -19.1222 -17.5264
   -17.5261 -17.0996 -17.0926 -16.9307 -16.9295 -16.8443 -16.8324 -15.1873
   -15.1872 -14.2570 -14.2495 -13.5109 -13.5107 -13.2484 -13.2211 -11.4659
   -11.4604 -11.2603 -10.7701 -10.7701 -10.5559 -10.5465  -9.7690  -9.6891
    -9.6812  -9.3311  -9.2609  -9.2512  -9.2037  -9.2007  -9.1634  -9.1634
    -8.8296  -8.7342  -8.3846  -8.3808  -7.8520  -7.8516  -7.5874  -7.5803
    -7.3147  -6.7847  -6.7306  -6.7241  -6.6415  -6.5923  -6.5888  -5.0365
    -4.9997  -4.7597  -4.7575  -4.7342  -4.6523  -4.5912  -4.4983  -0.4453
    -0.4439  -0.1920  -0.1912   0.2927   0.3384   0.4566   0.5094   0.5438
     0.8740   1.4621   1.4894   1.6023

          k =-0.1667-0.1443 0.0000 ( 31784 PWs)   bands (ev):

   -21.0155 -21.0097 -21.0047 -20.9942 -19.5687 -18.1789 -18.1735 -18.1714
   -18.1651 -17.2960 -17.2904 -17.2840 -17.2775 -16.8447 -16.8336 -14.4034
   -14.3979 -14.3961 -14.3906 -13.2494 -13.2201 -12.8670 -12.8669 -12.8603
   -12.8595 -11.2560 -10.2446 -10.2377 -10.2364 -10.2253  -9.8797  -9.8762
    -9.8649  -9.8612  -9.7650  -9.3317  -8.9728  -8.9508  -8.9337  -8.9277
    -8.7779  -8.7037  -8.3274  -8.3273  -8.3242  -8.3207  -7.3050  -7.0063
    -7.0059  -7.0030  -6.9999  -6.7896  -6.6506  -5.7033  -5.6946  -5.6833
    -5.6732  -4.9362  -4.8929  -4.8772  -4.8575  -4.6044  -4.5936  -0.0801
    -0.0755  -0.0557  -0.0407   0.4023   0.5039   0.6449   1.0174   1.1367
     1.1399   1.1557   1.1766   1.3202

          k =-0.0833 0.0722 0.0000 ( 31951 PWs)   bands (ev):

   -21.6447 -20.9152 -20.6737 -19.9541 -19.5715 -19.4779 -18.7763 -18.5451
   -18.0869 -17.4247 -16.8375 -16.8338 -16.8192 -16.5586 -16.1883 -15.0911
   -14.6014 -14.5051 -13.9888 -13.8659 -13.2515 -13.2468 -12.1731 -12.1608
   -11.9406 -11.7290 -11.4665 -11.3060 -10.6787 -10.2941  -9.7034  -9.6852
    -9.6766  -9.6398  -9.3338  -9.3107  -9.1059  -8.8481  -8.7467  -8.7236
    -8.7006  -8.5915  -8.5143  -8.4293  -8.1114  -7.7067  -7.4753  -7.3292
    -7.2910  -7.1115  -6.7780  -6.7670  -6.3839  -6.3400  -6.0790  -6.0001
    -5.6818  -5.0752  -4.6580  -4.6188  -4.5641  -3.9697  -3.7267  -0.9915
    -0.6700  -0.4934  -0.0159   0.1755   0.4342   0.4567   0.7217   0.9701
     1.3625   1.4973   1.7322   1.8857

     the Fermi energy is    -2.3080 ev

!    total energy              =    -351.28190291 Ry
     Harris-Foulkes estimate   =    -351.28190291 Ry
     estimated scf accuracy    <          2.6E-09 Ry

     The total energy is the sum of the following terms:

     one-electron contribution =   -4565.77801038 Ry
     hartree contribution      =    2302.97478729 Ry
     xc contribution           =    -112.23738423 Ry
     ewald contribution        =    2023.76152530 Ry
     smearing contrib. (-TS)   =      -0.00282089 Ry

     convergence has been achieved in   4 iterations

     Forces acting on atoms (cartesian axes, Ry/au):

     atom    1 type  1   force =     0.00004685   -0.00000830   -0.00000307
     atom    2 type  1   force =    -0.00001603   -0.00007452   -0.00000341
     atom    3 type  1   force =    -0.00002341   -0.00007494    0.00000260
     atom    4 type  1   force =    -0.00000255   -0.00002371   -0.00000736
     atom    5 type  1   force =    -0.00005021    0.00005083   -0.00000678
     atom    6 type  1   force =     0.00002341    0.00007494    0.00000260
     atom    7 type  1   force =     0.00001603    0.00007452   -0.00000341
     atom    8 type  1   force =     0.00001021   -0.00001717   -0.00000327
     atom    9 type  1   force =    -0.00000373    0.00002283   -0.00002274
     atom   10 type  1   force =     0.00000253    0.00003336    0.00000851
     atom   11 type  1   force =     0.00000642    0.00000530    0.00001825
     atom   12 type  1   force =    -0.00002134   -0.00000548   -0.00001644
     atom   13 type  1   force =     0.00002134    0.00000548   -0.00001644
     atom   14 type  1   force =    -0.00001150   -0.00002967    0.00001835
     atom   15 type  1   force =    -0.00000698   -0.00000718    0.00000874
     atom   16 type  1   force =     0.00000373   -0.00002283   -0.00002274
     atom   17 type  1   force =    -0.00001021    0.00001717   -0.00000327
     atom   18 type  1   force =     0.00000698    0.00000718    0.00000874
     atom   19 type  1   force =     0.00001150    0.00002967    0.00001835
     atom   20 type  1   force =     0.00005021   -0.00005083   -0.00000678
     atom   21 type  1   force =     0.00000255    0.00002371   -0.00000736
     atom   22 type  1   force =    -0.00000642   -0.00000530    0.00001825
     atom   23 type  1   force =    -0.00000253   -0.00003336    0.00000851
     atom   24 type  1   force =    -0.00004685    0.00000830   -0.00000307
     atom   25 type  1   force =     0.00001476    0.00000645    0.00000496
     atom   26 type  1   force =    -0.00001608    0.00001730    0.00000240
     atom   27 type  1   force =     0.00001361   -0.00000619    0.00000634
     atom   28 type  1   force =    -0.00001476   -0.00000645    0.00000496
     atom   29 type  1   force =     0.00001608   -0.00001730    0.00000240
     atom   30 type  1   force =    -0.00001361    0.00000619    0.00000634
     atom   31 type  2   force =    -0.00000284    0.00002889   -0.00000592
     atom   32 type  2   force =     0.00000278    0.00002681   -0.00000464
     atom   33 type  2   force =     0.00000842    0.00000136    0.00000347
     atom   34 type  2   force =     0.00000284   -0.00002889   -0.00000592
     atom   35 type  2   force =    -0.00000278   -0.00002681   -0.00000464
     atom   36 type  2   force =    -0.00000842   -0.00000136    0.00000347

     Total force =     0.000237     Total SCF correction =     0.000121
     SCF correction compared to forces is large: reduce conv_thr to get better values

     bfgs converged in  45 scf cycles and  44 bfgs steps
     (criteria: energy <  1.0E-05 Ry, force <  1.0E-04 Ry/Bohr)

     End of BFGS Geometry Optimization

     Final energy   =    -351.2819029098 Ry
Begin final coordinates

ATOMIC_POSITIONS (angstrom)
C        1.230091594   0.000360228  -0.171642038
C       -0.000006623   0.710446074  -0.174030247
C       -0.000005202   2.131205226  -0.187565267
C        1.230400925   2.840603385  -0.196065441
C        1.230427998   4.260791289  -0.196066224
C        0.000005202   4.970203085  -0.187565267
C        0.000006623   6.390962237  -0.174030247
C        1.230116769   7.101061820  -0.171641872
C        3.689994119   0.000331981  -0.174844622
C        2.460317556   0.710735531  -0.180845603
C        2.460530566   2.131009770  -0.197508185
C        3.690000261   2.840733731  -0.206074997
C        3.689999739   4.260674580  -0.206074997
C        2.460549047   4.970404416  -0.197509049
C        2.460336995   6.390668069  -0.180845802
C        3.690005881   7.101076330  -0.174844622
C        6.149883231   0.000346491  -0.171641872
C        4.919663005   0.710740242  -0.180845802
C        4.919450953   2.131003895  -0.197509049
C        6.149572002   2.840617022  -0.196066224
C        6.149599075   4.260804926  -0.196065441
C        4.919469434   4.970398541  -0.197508185
C        4.919682444   6.390672780  -0.180845603
C        6.149908406   7.101048083  -0.171642038
C        4.387460649   2.341593404   3.376505186
C        2.992488507   2.341618310   3.376505916
C        2.296674750   3.550733332   3.376722945
C        2.992539351   4.759814907   3.376505186
C        4.387511493   4.759790001   3.376505916
C        5.083325250   3.550674979   3.376722945
H        4.931824144   1.400992661   3.367900649
H        2.448084557   1.401043212   3.367889034
H        1.210881745   3.550750901   3.369115616
H        2.448175856   5.700415650   3.367900649
H        4.931915443   5.700365099   3.367889034
H        6.169118255   3.550657410   3.369115616
End final coordinates



     Writing output data file batch_graph+benzene.save/

     init_run     :     20.44s CPU     20.78s WALL (       1 calls)
     electrons    :   9347.85s CPU   9482.17s WALL (      45 calls)
     update_pot   :    168.48s CPU    172.42s WALL (      44 calls)
     forces       :    506.30s CPU    511.24s WALL (      45 calls)

     Called by init_run:
     wfcinit      :     15.92s CPU     16.09s WALL (       1 calls)
     potinit      :      2.50s CPU      2.61s WALL (       1 calls)
     hinit0       :      1.13s CPU      1.14s WALL (       1 calls)

     Called by electrons:
     c_bands      :   7749.96s CPU   7832.39s WALL (     277 calls)
     sum_band     :    951.25s CPU    971.75s WALL (     277 calls)
     v_of_rho     :    556.67s CPU    581.17s WALL (     306 calls)
     newd         :    179.97s CPU    190.24s WALL (     306 calls)
     mix_rho      :      9.75s CPU     10.05s WALL (     277 calls)

     Called by c_bands:
     init_us_2    :     27.43s CPU     27.53s WALL (    6000 calls)
     cegterg      :   7663.90s CPU   7745.41s WALL (    2770 calls)

     Called by sum_band:
     sum_band:bec :      1.08s CPU      1.08s WALL (    2770 calls)
     addusdens    :    137.23s CPU    147.24s WALL (     277 calls)

     Called by *egterg:
     h_psi        :   3777.66s CPU   3838.94s WALL (    9913 calls)
     s_psi        :   1104.09s CPU   1107.02s WALL (    9913 calls)
     g_psi        :      5.85s CPU      5.89s WALL (    7133 calls)
     cdiaghg      :    241.69s CPU    242.32s WALL (    9303 calls)

     Called by h_psi:
     h_psi:pot    :   3766.50s CPU   3819.44s WALL (    9913 calls)
     h_psi:calbec :   1232.39s CPU   1236.26s WALL (    9913 calls)
     vloc_psi     :   1410.45s CPU   1456.84s WALL (    9913 calls)
     add_vuspsi   :   1123.59s CPU   1126.30s WALL (    9913 calls)

     General routines
     calbec       :   2041.18s CPU   2047.41s WALL (   14483 calls)
     fft          :    366.32s CPU    379.31s WALL (   19338 calls)
     ffts         :      1.59s CPU      1.65s WALL (     583 calls)
     fftw         :   1584.70s CPU   1637.09s WALL ( 1286524 calls)
     interpolate  :      7.12s CPU      7.36s WALL (     306 calls)

     Parallel routines
     fft_scatt_xy :    177.78s CPU    184.21s WALL ( 1306445 calls)
     fft_scatt_yz :    307.79s CPU    330.88s WALL ( 1306445 calls)

     PWSCF        :      2h47m CPU      2h50m WALL


   This run was terminated on:  14: 7:20   5Jan2021            

=------------------------------------------------------------------------------=
   JOB DONE.
=------------------------------------------------------------------------------=
