
     Program PWSCF v.6.4.1 starts on  9Jan2021 at 13:34:55 

     This program is part of the open-source Quantum ESPRESSO suite
     for quantum simulation of materials; please cite
         "P. Giannozzi et al., J. Phys.:Condens. Matter 21 395502 (2009);
         "P. Giannozzi et al., J. Phys.:Condens. Matter 29 465901 (2017);
          URL http://www.quantum-espresso.org", 
     in publications or presentations arising from this work. More details at
     http://www.quantum-espresso.org/quote

     Parallel version (MPI), running on     8 processors

     MPI processes distributed on     1 nodes
     R & G space division:  proc/nbgrp/npool/nimage =       8
     Waiting for input...
     Reading input from standard input

     Current dimensions of program PWSCF are:
     Max number of different atomic species (ntypx) = 10
     Max number of k-points (npk) =  40000
     Max angular momentum in pseudopotentials (lmaxx) =  3
     Message from routine input:
     WARNING: "startingwfc" set to atomic+random may spoil restart
     Message from routine input:
     WARNING: "startingpot" set to atomic may spoil restart

     Atomic positions and unit cell read from directory:
     outputs/batch_graph+benzene.save/


     IMPORTANT: XC functional enforced from input :
     Exchange-correlation      = VDW-DF ( 1  4  4  0 1 0)
     Any further DFT definition will be discarded
     Please, verify this is what you really want

               file C.pbe-rrkjus.UPF: wavefunction(s)  2S 2P renormalized

     Subspace diagonalization in iterative solution of the eigenvalue problem:
     a serial algorithm will be used

     Message from routine setup:
     DEPRECATED: symmetry with ibrav=0, use correct ibrav instead

     Parallelization info
     --------------------
     sticks:   dense  smooth     PW     G-vecs:    dense   smooth      PW
     Min         714     285     79               126154    31889    4649
     Max         715     286     80               126163    31900    4658
     Sum        5713    2283    637              1009261   255153   37237



     bravais-lattice index     =            0
     lattice parameter (alat)  =       4.6487  a.u.
     unit-cell volume          =   10440.3175 (a.u.)^3
     number of atoms/cell      =           36
     number of atomic types    =            2
     number of electrons       =       126.00
     number of Kohn-Sham states=           76
     kinetic-energy cutoff     =      32.0000  Ry
     charge density cutoff     =     320.0000  Ry
     convergence threshold     =      1.0E-06
     mixing beta               =       0.5000
     number of iterations used =            8  plain     mixing
     Exchange-correlation      = VDW-DF ( 1  4  4  0 1 0)
     nstep                     =          200


     celldm(1)=   4.648726  celldm(2)=   0.000000  celldm(3)=   0.000000
     celldm(4)=   0.000000  celldm(5)=   0.000000  celldm(6)=   0.000000

     crystal axes: (cart. coord. in units of alat)
               a(1) = (   3.000000   0.000000   0.000000 )  
               a(2) = (   0.000000   3.464102   0.000000 )  
               a(3) = (   0.000000   0.000000  10.000000 )  

     reciprocal axes: (cart. coord. in units 2 pi/alat)
               b(1) = (  0.333333  0.000000  0.000000 )  
               b(2) = (  0.000000  0.288675  0.000000 )  
               b(3) = (  0.000000  0.000000  0.100000 )  


     PseudoPot. # 1 for C  read from file:
     ../../../pseudopotentials/C.pbe-rrkjus.UPF
     MD5 check sum: 00fb224312de0c5b6853bd333518df6f
     Pseudo is Ultrasoft, Zval =  4.0
     Generated by new atomic code, or converted to UPF format
     Using radial grid of  627 points,  4 beta functions with: 
                l(1) =   0
                l(2) =   0
                l(3) =   1
                l(4) =   1
     Q(r) pseudized with 0 coefficients 


     PseudoPot. # 2 for H  read from file:
     ../../../pseudopotentials/H.pbe-rrkjus_psl.1.0.0.UPF
     MD5 check sum: 3f4114867bd07edc7f1424d066fc1888
     Pseudo is Ultrasoft, Zval =  1.0
     Generated using "atomic" code by A. Dal Corso v.6.3MaX
     Using radial grid of  929 points,  2 beta functions with: 
                l(1) =   0
                l(2) =   0
     Q(r) pseudized with 0 coefficients 


     vdW kernel table read from file vdW_kernel_table
     MD5 check sum: 48e77a2e26edf626eeb0eaa751ad5cac

     atomic species   valence    mass     pseudopotential
        C              4.00    12.01070     C ( 1.00)
        H              1.00     1.00790     H ( 1.00)

      2 Sym. Ops. (no inversion) found ( 1 have fractional translation)



   Cartesian axes

     site n.     atom                  positions (alat units)
         1           C   tau(   1) = (   0.4999341   0.0003066  -0.0269608  )
         2           C   tau(   2) = (   0.0002529   0.2895140  -0.0236733  )
         3           C   tau(   3) = (   0.0005603   0.8666799  -0.0549324  )
         4           C   tau(   4) = (   0.5002057   1.1544782  -0.0845968  )
         5           C   tau(   5) = (   0.5002036   1.7322723  -0.0845975  )
         6           C   tau(   6) = (   0.0005586   2.0200709  -0.0549343  )
         7           C   tau(   7) = (   0.0002545   2.5972360  -0.0236754  )
         8           C   tau(   8) = (   0.4999356   2.8864435  -0.0269616  )
         9           C   tau(   9) = (   1.5000645   0.0003080  -0.0269616  )
        10           C   tau(  10) = (   1.0000018   0.2893620  -0.0443494  )
        11           C   tau(  11) = (   0.9999980   0.8658860  -0.0789214  )
        12           C   tau(  12) = (   1.4997965   1.1544792  -0.0845975  )
        13           C   tau(  13) = (   1.4997944   1.7322734  -0.0845968  )
        14           C   tau(  14) = (   1.0000022   2.0208655  -0.0789214  )
        15           C   tau(  15) = (   0.9999984   2.5973896  -0.0443494  )
        16           C   tau(  16) = (   1.5000660   2.8864449  -0.0269608  )
        17           C   tau(  17) = (   2.5000016   0.0008002  -0.0094498  )
        18           C   tau(  18) = (   1.9997456   0.2895155  -0.0236754  )
        19           C   tau(  19) = (   1.9994415   0.8666807  -0.0549343  )
        20           C   tau(  20) = (   2.4999987   1.1550744  -0.0615409  )
        21           C   tau(  21) = (   2.5000017   1.7316771  -0.0615409  )
        22           C   tau(  22) = (   1.9994398   2.0200717  -0.0549324  )
        23           C   tau(  23) = (   1.9997473   2.5972375  -0.0236733  )
        24           C   tau(  24) = (   2.4999988   2.8859513  -0.0094498  )
        25           C   tau(  25) = (   1.2823695   0.9523870   1.3133673  )
        26           C   tau(  26) = (   0.7174276   0.9526209   1.3134845  )
        27           C   tau(  27) = (   0.4370939   1.4430786   1.3134853  )
        28           C   tau(  28) = (   0.7176307   1.9343646   1.3133673  )
        29           C   tau(  29) = (   1.2825725   1.9341307   1.3134845  )
        30           C   tau(  30) = (   1.5629062   1.4436730   1.3134853  )
        31           H   tau(  31) = (   1.5026861   0.5714362   1.3170443  )
        32           H   tau(  32) = (   0.4970603   0.5711290   1.3170491  )
        33           H   tau(  33) = (  -0.0020733   1.4433041   1.3172368  )
        34           H   tau(  34) = (   0.4973140   2.3153154   1.3170443  )
        35           H   tau(  35) = (   1.5029399   2.3156226   1.3170491  )
        36           H   tau(  36) = (   2.0020734   1.4434475   1.3172368  )

     number of k points=    10  gaussian smearing, width (Ry)=  0.0200
                       cart. coord. in units 2pi/alat
        k(    1) = (   0.0000000   0.0000000   0.0000000), wk =   0.1250000
        k(    2) = (   0.0000000   0.0721688   0.0000000), wk =   0.2500000
        k(    3) = (   0.0000000  -0.1443376   0.0000000), wk =   0.1250000
        k(    4) = (   0.0833333   0.0000000   0.0000000), wk =   0.2500000
        k(    5) = (   0.0833333   0.0721688   0.0000000), wk =   0.2500000
        k(    6) = (   0.0833333  -0.1443376   0.0000000), wk =   0.2500000
        k(    7) = (  -0.1666667   0.0000000   0.0000000), wk =   0.1250000
        k(    8) = (  -0.1666667   0.0721688   0.0000000), wk =   0.2500000
        k(    9) = (  -0.1666667  -0.1443376   0.0000000), wk =   0.1250000
        k(   10) = (  -0.0833333   0.0721688   0.0000000), wk =   0.2500000

     Dense  grid:  1009261 G-vectors     FFT dimensions: (  81,  96, 270)

     Smooth grid:   255153 G-vectors     FFT dimensions: (  54,  60, 180)

     Estimated max dynamical RAM per process >     428.39 MB

     Estimated total dynamical RAM >       3.35 GB

     The initial density is read from file :
     outputs/batch_graph+benzene.save/charge-density


     negative rho (up, down):  2.116E-04 0.000E+00


     %%%%%%%%%%%%%%%%%%%%%%%%%%%%%%%%%%%%%%%%%%%%%%%%%%%%%%%%%%%%%%%%%%%%%%%%
     %                                                                      %
     % You are using vdW-DF, which was implemented by the Thonhauser group. %
     % Please cite the following two papers that made this development      %
     % possible and the two reviews that describe the various versions:     %
     %                                                                      %
     %   T. Thonhauser et al., PRL 115, 136402 (2015).                      %
     %   T. Thonhauser et al., PRB 76, 125112 (2007).                       %
     %   K. Berland et al., Rep. Prog. Phys. 78, 066501 (2015).             %
     %   D.C. Langreth et al., J. Phys.: Condens. Matter 21, 084203 (2009). %
     %                                                                      %
     %                                                                      %
     % If you are calculating the stress with vdW-DF, please also cite:     %
     %                                                                      %
     %   R. Sabatini et al., J. Phys.: Condens. Matter 24, 424209 (2012).   %
     %                                                                      %
     %%%%%%%%%%%%%%%%%%%%%%%%%%%%%%%%%%%%%%%%%%%%%%%%%%%%%%%%%%%%%%%%%%%%%%%%


     Starting wfcs are  126 randomized atomic wfcs

     total cpu time spent up to now is       21.7 secs

     Self-consistent Calculation

     iteration #  1     ecut=    32.00 Ry     beta= 0.50
     Davidson diagonalization with overlap
     c_bands:  1 eigenvalues not converged
     c_bands:  1 eigenvalues not converged
     c_bands:  1 eigenvalues not converged
     c_bands:  1 eigenvalues not converged
     ethr =  1.00E-05,  avg # of iterations = 18.1

     negative rho (up, down):  2.055E-04 0.000E+00

     total cpu time spent up to now is      115.5 secs

     total energy              =    -351.14695342 Ry
     Harris-Foulkes estimate   =    -351.40159811 Ry
     estimated scf accuracy    <       0.38954968 Ry

     iteration #  2     ecut=    32.00 Ry     beta= 0.50
     Davidson diagonalization with overlap
     ethr =  3.09E-04,  avg # of iterations =  4.2

     negative rho (up, down):  2.842E-04 0.000E+00

     total cpu time spent up to now is      154.0 secs

     total energy              =    -351.25872640 Ry
     Harris-Foulkes estimate   =    -351.29706364 Ry
     estimated scf accuracy    <       0.07280983 Ry

     iteration #  3     ecut=    32.00 Ry     beta= 0.50
     Davidson diagonalization with overlap
     ethr =  5.78E-05,  avg # of iterations =  4.9

     negative rho (up, down):  2.332E-04 0.000E+00

     total cpu time spent up to now is      191.5 secs

     total energy              =    -351.27551931 Ry
     Harris-Foulkes estimate   =    -351.27568571 Ry
     estimated scf accuracy    <       0.00079098 Ry

     iteration #  4     ecut=    32.00 Ry     beta= 0.50
     Davidson diagonalization with overlap
     ethr =  6.28E-07,  avg # of iterations =  5.8

     negative rho (up, down):  2.357E-04 0.000E+00

     total cpu time spent up to now is      231.4 secs

     total energy              =    -351.27574506 Ry
     Harris-Foulkes estimate   =    -351.27580071 Ry
     estimated scf accuracy    <       0.00023116 Ry

     iteration #  5     ecut=    32.00 Ry     beta= 0.50
     Davidson diagonalization with overlap
     ethr =  1.83E-07,  avg # of iterations =  2.6

     negative rho (up, down):  2.127E-04 0.000E+00

     total cpu time spent up to now is      262.4 secs

     total energy              =    -351.27581561 Ry
     Harris-Foulkes estimate   =    -351.27580513 Ry
     estimated scf accuracy    <       0.00004740 Ry

     iteration #  6     ecut=    32.00 Ry     beta= 0.50
     Davidson diagonalization with overlap
     ethr =  3.76E-08,  avg # of iterations =  2.2

     negative rho (up, down):  2.139E-04 0.000E+00

     total cpu time spent up to now is      292.5 secs

     total energy              =    -351.27582675 Ry
     Harris-Foulkes estimate   =    -351.27582318 Ry
     estimated scf accuracy    <       0.00000293 Ry

     iteration #  7     ecut=    32.00 Ry     beta= 0.50
     Davidson diagonalization with overlap
     ethr =  2.32E-09,  avg # of iterations =  2.1

     negative rho (up, down):  2.129E-04 0.000E+00

     total cpu time spent up to now is      324.3 secs

     End of self-consistent calculation

          k = 0.0000 0.0000 0.0000 ( 31971 PWs)   bands (ev):

   -21.8616 -20.4082 -20.4053 -19.9284 -19.9277 -19.6158 -18.5212 -18.5205
   -18.5190 -18.5149 -16.8683 -16.8332 -16.6898 -15.5877 -15.0236 -15.0192
   -15.0131 -15.0095 -13.2994 -13.2550 -13.0399 -13.0384 -13.0378 -13.0356
   -12.8962 -12.8942 -11.3877 -10.2323 -10.2285  -9.9888  -9.8859  -9.8406
    -9.6503  -9.3522  -9.0519  -9.0499  -9.0441  -9.0436  -8.8960  -8.8614
    -8.8595  -8.7607  -8.6049  -8.2563  -8.1955  -7.7167  -7.6493  -7.5459
    -7.5455  -7.2505  -6.8682  -6.7804  -6.1156  -6.1061  -6.0872  -6.0798
    -5.5804  -5.5790  -4.7620  -4.5773  -4.5374  -2.3308  -2.3292  -2.3165
    -2.3126  -0.6508  -0.0927   0.4179   0.4769   0.6826   1.3897   1.4001
     1.4152   1.4588   1.5145   1.9148

          k = 0.0000 0.0722 0.0000 ( 31929 PWs)   bands (ev):

   -21.7699 -21.0397 -19.8389 -19.8388 -19.6245 -19.5929 -19.1296 -19.1267
   -17.7549 -17.7530 -17.5426 -16.8672 -16.8331 -15.8888 -15.8873 -14.6025
   -14.4858 -14.4849 -13.6380 -13.6362 -13.2976 -13.2546 -12.3776 -12.3760
   -12.3150 -12.3126 -11.5156 -11.3826 -10.6901 -10.6866 -10.0864 -10.0861
    -9.8397  -9.6453  -9.3529  -9.0021  -8.8055  -8.7270  -8.6029  -8.5530
    -8.5502  -8.3834  -8.3824  -8.3114  -8.1088  -7.6441  -7.5521  -7.3631
    -7.1977  -6.9018  -6.8665  -6.8394  -6.7257  -6.7086  -5.9424  -5.7709
    -5.3050  -5.2942  -5.2140  -4.5900  -4.5720  -3.3329  -3.3305  -1.3458
    -1.3426  -0.0311   0.0596   0.3791   0.4038   0.5589   0.6228   0.8131
     1.2710   1.7303   1.8473   2.2079

          k = 0.0000-0.1443 0.0000 ( 31940 PWs)   bands (ev):

   -21.5002 -21.4905 -19.6319 -19.5796 -19.5708 -19.5634 -19.5533 -18.6413
   -18.6303 -16.8843 -16.8707 -16.8617 -16.8536 -16.8349 -16.8249 -14.1049
   -14.1048 -14.1024 -14.0992 -13.2975 -13.2555 -13.1154 -13.1110 -11.5099
   -11.5001 -11.4967 -11.4928 -11.3787 -11.2830 -11.2809 -11.2796 -11.2783
    -9.6406  -9.5235  -9.5166  -9.3537  -8.7517  -8.6003  -8.5408  -8.5357
    -8.2476  -8.2422  -8.2399  -8.2394  -7.5051  -7.2743  -7.2592  -7.2523
    -7.0883  -6.9454  -6.9197  -6.8606  -6.7754  -6.2706  -6.2571  -6.2349
    -6.2214  -4.6927  -4.6504  -4.3435  -4.3387  -4.2795  -4.2581  -0.4274
    -0.4262  -0.4073  -0.4015   0.2797   0.4164   0.5083   0.8489   1.1746
     1.2406   1.4607   1.5084   2.0254

          k = 0.0833 0.0000 0.0000 ( 31951 PWs)   bands (ev):

   -21.7393 -20.7672 -20.2884 -20.2855 -19.6166 -19.3353 -19.3347 -18.8664
   -17.5121 -17.5100 -16.8677 -16.8439 -16.5855 -16.2269 -15.7495 -15.4867
   -14.8371 -14.5783 -14.5769 -14.0920 -13.2715 -13.2543 -12.3605 -12.1168
   -11.6724 -11.4474 -11.4462 -11.3483 -10.1388  -9.9376  -9.9105  -9.7711
    -9.6997  -9.4046  -9.3495  -9.1262  -9.1226  -8.9459  -8.9450  -8.7713
    -8.7530  -8.7065  -8.5993  -8.1147  -8.0603  -8.0012  -8.0007  -7.6304
    -7.3344  -6.9889  -6.9288  -6.7669  -6.7404  -6.4364  -6.0537  -5.8368
    -5.2018  -5.1820  -4.6813  -4.5796  -4.4636  -3.6137  -3.3419  -1.3736
    -1.0388  -0.6873  -0.0399  -0.0000   0.1080   0.5103   0.5676   0.8561
     1.4406   1.6798   2.1992   2.2464

          k = 0.0833 0.0722 0.0000 ( 31951 PWs)   bands (ev):

   -21.6477 -20.9188 -20.6766 -19.9578 -19.6164 -19.4822 -18.7790 -18.5495
   -18.0902 -17.4324 -16.8715 -16.8478 -16.8198 -16.5657 -16.1911 -15.0942
   -14.6089 -14.5115 -13.9952 -13.8704 -13.2705 -13.2549 -12.1810 -12.1661
   -11.9426 -11.7337 -11.4792 -11.3437 -10.6846 -10.3030  -9.7134  -9.6944
    -9.6708  -9.6477  -9.3504  -9.3122  -9.1138  -8.8816  -8.7465  -8.7352
    -8.7048  -8.5946  -8.5190  -8.4436  -8.1200  -7.7306  -7.4807  -7.3298
    -7.2968  -7.1120  -6.7868  -6.7352  -6.4011  -6.3402  -6.0894  -6.0086
    -5.6970  -5.0891  -4.7220  -4.5889  -4.4962  -3.9747  -3.7281  -1.0134
    -0.6950  -0.5332  -0.0495   0.2301   0.4241   0.5180   0.7802   0.9848
     1.4011   1.5482   1.7068   1.9450

          k = 0.0833-0.1443 0.0000 ( 31876 PWs)   bands (ev):

   -21.3784 -21.3687 -20.4105 -20.4013 -19.6153 -18.5271 -18.5229 -18.5153
   -18.5125 -17.6193 -17.6088 -16.8677 -16.8443 -16.2637 -16.2621 -15.2084
   -15.2034 -13.2707 -13.2564 -13.0497 -13.0412 -13.0406 -13.0335 -12.9644
   -12.9643 -11.3486 -11.3464 -11.3330 -10.6609 -10.6607  -9.8826  -9.8742
    -9.6912  -9.3798  -9.3766  -9.3506  -9.0463  -9.0414  -9.0389  -9.0354
    -8.7513  -8.7300  -8.2362  -8.2184  -7.5535  -7.5465  -7.2968  -7.2385
    -7.2247  -6.7969  -6.7406  -6.5728  -6.5684  -6.1089  -6.0949  -6.0886
    -6.0881  -5.0956  -5.0745  -4.6147  -4.5791  -4.0764  -4.0514  -0.8719
    -0.8699   0.4008   0.4070   0.4512   0.5046   0.5604   1.0388   1.3448
     1.3771   1.3897   1.4082   1.4373

          k =-0.1667 0.0000 0.0000 ( 31854 PWs)   bands (ev):

   -21.3779 -21.3687 -19.9352 -19.9307 -19.9264 -19.9238 -19.6110 -17.6119
   -17.6103 -16.8692 -16.8563 -16.6803 -16.6802 -16.2758 -16.2677 -15.5920
   -15.5905 -15.2061 -15.1964 -13.2601 -13.2392 -12.9701 -12.9697 -11.3422
   -11.3403 -11.3032 -10.6630 -10.6490 -10.2340 -10.2307 -10.2276 -10.2268
    -9.7611  -9.3790  -9.3728  -9.3468  -8.9042  -8.9038  -8.8690  -8.8686
    -8.8639  -8.8577  -8.8088  -8.7457  -7.7668  -7.6635  -7.6549  -7.6466
    -7.2363  -7.2220  -7.2049  -6.7749  -6.6303  -6.5657  -6.5588  -5.1194
    -5.0545  -4.7769  -4.7520  -4.5831  -4.4746  -4.0949  -4.0469  -0.8746
    -0.8654  -0.6596  -0.6339   0.4060   0.4960   0.5250   0.5510   0.5921
     0.8082   1.3510   1.3924   2.1417

          k =-0.1667 0.0722 0.0000 ( 31908 PWs)   bands (ev):

   -21.2867 -21.2775 -20.5612 -20.5522 -19.6141 -19.1358 -19.1259 -17.5299
   -17.5283 -17.1076 -17.1007 -16.9391 -16.9338 -16.8646 -16.8485 -15.1917
   -15.1908 -14.2639 -14.2554 -13.5187 -13.5185 -13.2599 -13.2381 -11.4770
   -11.4712 -11.2998 -10.7760 -10.7751 -10.5600 -10.5460  -9.7576  -9.6960
    -9.6832  -9.3484  -9.2871  -9.2807  -9.2019  -9.1961  -9.1733  -9.1724
    -8.8099  -8.7655  -8.3987  -8.3877  -7.8639  -7.8613  -7.5979  -7.5867
    -7.3085  -6.7950  -6.7507  -6.7415  -6.6228  -6.5879  -6.5815  -5.0779
    -5.0094  -4.8230  -4.8204  -4.7106  -4.6542  -4.4807  -4.4648  -0.5034
    -0.4764  -0.2298  -0.2132   0.2576   0.3145   0.5477   0.5931   0.6055
     0.9265   1.4772   1.5093   1.6376

          k =-0.1667-0.1443 0.0000 ( 31784 PWs)   bands (ev):

   -21.0158 -21.0120 -21.0116 -20.9972 -19.6136 -18.1909 -18.1757 -18.1737
   -18.1711 -17.2968 -17.2919 -17.2867 -17.2857 -16.8677 -16.8522 -14.4109
   -14.4059 -14.3996 -14.3937 -13.2610 -13.2376 -12.8816 -12.8714 -12.8694
   -12.8676 -11.2954 -10.2459 -10.2448 -10.2373 -10.2262  -9.8880  -9.8874
    -9.8703  -9.8684  -9.7528  -9.3490  -8.9974  -8.9811  -8.9635  -8.9315
    -8.7545  -8.7077  -8.3377  -8.3335  -8.3276  -8.3266  -7.2942  -7.0217
    -7.0197  -7.0155  -7.0120  -6.7968  -6.6263  -5.7288  -5.7107  -5.6814
    -5.6761  -5.0059  -4.9020  -4.8964  -4.8817  -4.5662  -4.4922  -0.1471
    -0.1015  -0.1010  -0.0759   0.5178   0.5484   0.7162   1.0417   1.1086
     1.1096   1.1494   1.1805   1.3504

          k =-0.0833 0.0722 0.0000 ( 31951 PWs)   bands (ev):

   -21.6477 -20.9188 -20.6766 -19.9578 -19.6164 -19.4822 -18.7789 -18.5495
   -18.0902 -17.4324 -16.8692 -16.8514 -16.8185 -16.5657 -16.1911 -15.0942
   -14.6089 -14.5115 -13.9952 -13.8704 -13.2704 -13.2550 -12.1810 -12.1661
   -11.9426 -11.7337 -11.4792 -11.3437 -10.6846 -10.3030  -9.7135  -9.6943
    -9.6708  -9.6477  -9.3504  -9.3122  -9.1138  -8.8821  -8.7454  -8.7350
    -8.7053  -8.5946  -8.5193  -8.4436  -8.1200  -7.7307  -7.4807  -7.3297
    -7.2968  -7.1120  -6.7862  -6.7357  -6.4011  -6.3402  -6.0895  -6.0086
    -5.6972  -5.0891  -4.7175  -4.5972  -4.4923  -3.9745  -3.7282  -1.0134
    -0.6949  -0.5330  -0.0495   0.2303   0.4174   0.5266   0.7781   0.9847
     1.4006   1.5479   1.7068   1.9453

     the Fermi energy is    -2.3222 ev

!    total energy              =    -351.27582722 Ry
     Harris-Foulkes estimate   =    -351.27582724 Ry
     estimated scf accuracy    <       0.00000040 Ry

     The total energy is the sum of the following terms:

     one-electron contribution =   -4654.35811350 Ry
     hartree contribution      =    2347.25682934 Ry
     xc contribution           =    -112.27914760 Ry
     ewald contribution        =    2068.10742316 Ry
     smearing contrib. (-TS)   =      -0.00281861 Ry

     convergence has been achieved in   7 iterations

     Forces acting on atoms (cartesian axes, Ry/au):

     atom    1 type  1   force =     0.00122329    0.00048140    0.00008880
     atom    2 type  1   force =    -0.00042309   -0.00030689   -0.00484543
     atom    3 type  1   force =    -0.00019383   -0.00079702   -0.00197978
     atom    4 type  1   force =    -0.00087811    0.00071190    0.00292038
     atom    5 type  1   force =    -0.00085626   -0.00070530    0.00291688
     atom    6 type  1   force =    -0.00017763    0.00079880   -0.00197967
     atom    7 type  1   force =    -0.00043962    0.00031404   -0.00484275
     atom    8 type  1   force =     0.00120736   -0.00047603    0.00008966
     atom    9 type  1   force =    -0.00120736    0.00047603    0.00008966
     atom   10 type  1   force =    -0.00001801   -0.00090604   -0.00179860
     atom   11 type  1   force =     0.00002163   -0.00066664    0.00118659
     atom   12 type  1   force =     0.00085626    0.00070530    0.00291688
     atom   13 type  1   force =     0.00087811   -0.00071190    0.00292038
     atom   14 type  1   force =    -0.00002163    0.00066664    0.00118659
     atom   15 type  1   force =     0.00001801    0.00090604   -0.00179860
     atom   16 type  1   force =    -0.00122329   -0.00048140    0.00008880
     atom   17 type  1   force =    -0.00001478   -0.00244107   -0.00081825
     atom   18 type  1   force =     0.00043962   -0.00031404   -0.00484275
     atom   19 type  1   force =     0.00017763   -0.00079880   -0.00197967
     atom   20 type  1   force =     0.00001624   -0.00274479    0.00288725
     atom   21 type  1   force =    -0.00001624    0.00274479    0.00288725
     atom   22 type  1   force =     0.00019383    0.00079702   -0.00197978
     atom   23 type  1   force =     0.00042309    0.00030689   -0.00484543
     atom   24 type  1   force =     0.00001478    0.00244107   -0.00081825
     atom   25 type  1   force =     0.00155556    0.00095350    0.00326618
     atom   26 type  1   force =    -0.00086847   -0.00324517    0.00309400
     atom   27 type  1   force =    -0.00402472    0.00272827    0.00300720
     atom   28 type  1   force =    -0.00155556   -0.00095350    0.00326618
     atom   29 type  1   force =     0.00086847    0.00324517    0.00309400
     atom   30 type  1   force =     0.00402472   -0.00272827    0.00300720
     atom   31 type  2   force =     0.00340261   -0.00428429   -0.00110717
     atom   32 type  2   force =    -0.00274097   -0.00300633   -0.00106877
     atom   33 type  2   force =    -0.00780540   -0.00006566   -0.00101652
     atom   34 type  2   force =    -0.00340261    0.00428429   -0.00110717
     atom   35 type  2   force =     0.00274097    0.00300633   -0.00106877
     atom   36 type  2   force =     0.00780540    0.00006566   -0.00101652

     Total force =     0.023934     Total SCF correction =     0.001559

     number of scf cycles    =  18
     number of bfgs steps    =  17

     energy   old            =    -351.2750445992 Ry
     energy   new            =    -351.2758272211 Ry

     CASE: energy  _new < energy  _old

     new trust radius        =       0.0764682167 bohr
     new conv_thr            =       0.0000007805 Ry


ATOMIC_POSITIONS (angstrom)
C        1.230724767   0.000651347  -0.073878681
C        0.000891863   0.711212263  -0.086179107
C        0.002142288   2.131770271  -0.149643822
C        1.230346321   2.839601025  -0.224827781
C        1.230350741   4.261808620  -0.224833735
C        0.002148755   4.969638630  -0.149653348
C        0.000885028   6.390195475  -0.086187498
C        1.230718141   7.100756890  -0.073882351
C        3.689281859   0.000651421  -0.073882351
C        2.459993368   0.713326135  -0.114689006
C        2.460004923   2.130477524  -0.209561607
C        3.689649259   2.839599691  -0.224833735
C        3.689653679   4.261807286  -0.224827781
C        2.459995077   4.970930787  -0.209561607
C        2.460006632   6.388082176  -0.114689006
C        3.689275233   7.100756964  -0.073878681
C        6.149994207   0.000741751  -0.063693067
C        4.919114972   0.711212836  -0.086187498
C        4.917851245   2.131769681  -0.149653348
C        6.150005558   2.841039316  -0.155743610
C        6.149994442   4.260368995  -0.155743610
C        4.917857712   4.969638040  -0.149643822
C        4.919108137   6.390196048  -0.086179107
C        6.150005793   7.100666560  -0.063693067
C        3.155254256   2.342075643   3.262830061
C        1.764279893   2.340496227   3.263161137
C        1.076158820   3.551099496   3.263414679
C        1.764745744   4.759332668   3.262830061
C        3.155720107   4.760912084   3.263161137
C        3.843841180   3.550308815   3.263414679
H        3.697324495   1.403686789   3.274322734
H        1.222035322   1.403153185   3.274234654
H       -0.003720539   3.550402434   3.274810346
H        1.222675505   5.697721522   3.274322734
H        3.697964678   5.698255126   3.274234654
H        4.923720539   3.551005877   3.274810346



     Writing output data file batch_graph+benzene.save/
     NEW-OLD atomic charge density approx. for the potential

     negative rho (up, down):  2.177E-04 0.000E+00

     total cpu time spent up to now is      339.9 secs

     Self-consistent Calculation

     iteration #  1     ecut=    32.00 Ry     beta= 0.50
     Davidson diagonalization with overlap
     ethr =  1.00E-06,  avg # of iterations =  5.0

     negative rho (up, down):  2.149E-04 0.000E+00

     total cpu time spent up to now is      407.7 secs

     total energy              =    -351.27444293 Ry
     Harris-Foulkes estimate   =    -351.28022490 Ry
     estimated scf accuracy    <       0.01333891 Ry

     iteration #  2     ecut=    32.00 Ry     beta= 0.50
     Davidson diagonalization with overlap
     ethr =  1.06E-05,  avg # of iterations =  2.1

     negative rho (up, down):  2.468E-04 0.000E+00

     total cpu time spent up to now is      442.3 secs

     total energy              =    -351.27652088 Ry
     Harris-Foulkes estimate   =    -351.27718026 Ry
     estimated scf accuracy    <       0.00205800 Ry

     iteration #  3     ecut=    32.00 Ry     beta= 0.50
     Davidson diagonalization with overlap
     ethr =  1.63E-06,  avg # of iterations =  3.1

     negative rho (up, down):  2.561E-04 0.000E+00

     total cpu time spent up to now is      477.8 secs

     total energy              =    -351.27688975 Ry
     Harris-Foulkes estimate   =    -351.27692241 Ry
     estimated scf accuracy    <       0.00037340 Ry

     iteration #  4     ecut=    32.00 Ry     beta= 0.50
     Davidson diagonalization with overlap
     ethr =  2.96E-07,  avg # of iterations =  2.0

     negative rho (up, down):  2.503E-04 0.000E+00

     total cpu time spent up to now is      509.6 secs

     total energy              =    -351.27693647 Ry
     Harris-Foulkes estimate   =    -351.27693941 Ry
     estimated scf accuracy    <       0.00004343 Ry

     iteration #  5     ecut=    32.00 Ry     beta= 0.50
     Davidson diagonalization with overlap
     ethr =  3.45E-08,  avg # of iterations =  2.3

     negative rho (up, down):  2.299E-04 0.000E+00

     total cpu time spent up to now is      541.3 secs

     total energy              =    -351.27694582 Ry
     Harris-Foulkes estimate   =    -351.27694850 Ry
     estimated scf accuracy    <       0.00001390 Ry

     iteration #  6     ecut=    32.00 Ry     beta= 0.50
     Davidson diagonalization with overlap
     ethr =  1.10E-08,  avg # of iterations =  2.2

     negative rho (up, down):  2.215E-04 0.000E+00

     total cpu time spent up to now is      571.5 secs

     total energy              =    -351.27694867 Ry
     Harris-Foulkes estimate   =    -351.27694842 Ry
     estimated scf accuracy    <       0.00000092 Ry

     iteration #  7     ecut=    32.00 Ry     beta= 0.50
     Davidson diagonalization with overlap
     ethr =  7.33E-10,  avg # of iterations =  2.6

     negative rho (up, down):  2.146E-04 0.000E+00

     total cpu time spent up to now is      603.4 secs

     End of self-consistent calculation

          k = 0.0000 0.0000 0.0000 ( 31971 PWs)   bands (ev):

   -21.8560 -20.4021 -20.3999 -19.9231 -19.9214 -19.6054 -18.5163 -18.5149
   -18.5130 -18.5088 -16.8659 -16.8264 -16.6839 -15.5824 -15.0187 -15.0119
   -15.0097 -15.0015 -13.2964 -13.2552 -13.0369 -13.0319 -13.0308 -13.0292
   -12.8914 -12.8887 -11.3820 -10.2287 -10.2210  -9.9764  -9.8792  -9.8391
    -9.6581  -9.3473  -9.0441  -9.0423  -9.0397  -9.0395  -8.8902  -8.8583
    -8.8514  -8.7648  -8.5960  -8.2437  -8.1914  -7.7032  -7.6514  -7.5393
    -7.5319  -7.2594  -6.8610  -6.7916  -6.1062  -6.0968  -6.0856  -6.0756
    -5.5734  -5.5710  -4.7509  -4.5817  -4.5484  -2.3287  -2.3238  -2.3070
    -2.3028  -0.6402  -0.1025   0.4119   0.4682   0.6812   1.3992   1.4095
     1.4171   1.4617   1.5025   1.9067

          k = 0.0000 0.0722 0.0000 ( 31929 PWs)   bands (ev):

   -21.7643 -21.0340 -19.8337 -19.8324 -19.6138 -19.5875 -19.1243 -19.1209
   -17.7494 -17.7471 -17.5366 -16.8652 -16.8263 -15.8829 -15.8817 -14.5966
   -14.4807 -14.4783 -13.6331 -13.6295 -13.2948 -13.2550 -12.3724 -12.3702
   -12.3107 -12.3057 -11.5092 -11.3771 -10.6863 -10.6792 -10.0810 -10.0800
    -9.8317  -9.6532  -9.3481  -8.9908  -8.7997  -8.7357  -8.5942  -8.5505
    -8.5421  -8.3789  -8.3745  -8.3050  -8.1035  -7.6280  -7.5456  -7.3551
    -7.2029  -6.8949  -6.8613  -6.8374  -6.7238  -6.7147  -5.9373  -5.7661
    -5.2928  -5.2837  -5.2074  -4.5985  -4.5777  -3.3277  -3.3245  -1.3373
    -1.3357  -0.0255   0.0557   0.3808   0.4104   0.5510   0.6176   0.8114
     1.2619   1.7195   1.8458   2.2052

          k = 0.0000-0.1443 0.0000 ( 31940 PWs)   bands (ev):

   -21.4958 -21.4836 -19.6189 -19.5739 -19.5674 -19.5586 -19.5471 -18.6321
   -18.6279 -16.8797 -16.8604 -16.8522 -16.8516 -16.8352 -16.8193 -14.0996
   -14.0990 -14.0975 -14.0919 -13.2944 -13.2559 -13.1075 -13.1070 -11.5013
   -11.4937 -11.4932 -11.4889 -11.3730 -11.2793 -11.2752 -11.2732 -11.2717
    -9.6485  -9.5164  -9.5052  -9.3489  -8.7602  -8.5917  -8.5326  -8.5326
    -8.2486  -8.2363  -8.2317  -8.2294  -7.4861  -7.2673  -7.2524  -7.2446
    -7.0950  -6.9443  -6.9099  -6.8540  -6.7895  -6.2583  -6.2570  -6.2313
    -6.2138  -4.6872  -4.6432  -4.3358  -4.3337  -4.2801  -4.2657  -0.4207
    -0.4144  -0.3995  -0.3923   0.2668   0.4114   0.4958   0.8422   1.1748
     1.2396   1.4666   1.5144   2.0192

          k = 0.0833 0.0000 0.0000 ( 31951 PWs)   bands (ev):

   -21.7336 -20.7615 -20.2823 -20.2801 -19.6057 -19.3297 -19.3293 -18.8609
   -17.5063 -17.5045 -16.8653 -16.8373 -16.5794 -16.2213 -15.7434 -15.4814
   -14.8317 -14.5725 -14.5713 -14.0860 -13.2688 -13.2546 -12.3552 -12.1111
   -11.6666 -11.4417 -11.4402 -11.3430 -10.1328  -9.9273  -9.9039  -9.7682
    -9.7063  -9.3987  -9.3447  -9.1191  -9.1162  -8.9400  -8.9393  -8.7595
    -8.7569  -8.7016  -8.5971  -8.1022  -8.0546  -7.9952  -7.9946  -7.6236
    -7.3329  -6.9818  -6.9300  -6.7816  -6.7323  -6.4290  -6.0484  -5.8322
    -5.1899  -5.1720  -4.6748  -4.5860  -4.4698  -3.6080  -3.3371  -1.3651
    -1.0323  -0.6770  -0.0283   0.0111   0.0976   0.4961   0.5499   0.8549
     1.4294   1.6685   2.1967   2.2445

          k = 0.0833 0.0722 0.0000 ( 31951 PWs)   bands (ev):

   -21.6421 -20.9130 -20.6710 -19.9520 -19.6055 -19.4767 -18.7734 -18.5438
   -18.0845 -17.4264 -16.8670 -16.8429 -16.8145 -16.5600 -16.1855 -15.0886
   -14.6031 -14.5058 -13.9894 -13.8647 -13.2679 -13.2552 -12.1754 -12.1601
   -11.9369 -11.7282 -11.4729 -11.3385 -10.6789 -10.2972  -9.7068  -9.6969
    -9.6677  -9.6418  -9.3456  -9.3064  -9.1091  -8.8705  -8.7362  -8.7308
    -8.7098  -8.5910  -8.5118  -8.4364  -8.1150  -7.7187  -7.4765  -7.3284
    -7.2906  -7.1111  -6.8005  -6.7276  -6.3932  -6.3358  -6.0843  -6.0022
    -5.6876  -5.0791  -4.7072  -4.6025  -4.4998  -3.9714  -3.7230  -1.0063
    -0.6862  -0.5235  -0.0388   0.2203   0.4168   0.5145   0.7714   0.9831
     1.3919   1.5363   1.7144   1.9357

          k = 0.0833-0.1443 0.0000 ( 31876 PWs)   bands (ev):

   -21.3740 -21.3618 -20.4060 -20.3945 -19.6046 -18.5188 -18.5180 -18.5124
   -18.5059 -17.6100 -17.6065 -16.8656 -16.8376 -16.2607 -16.2539 -15.2013
   -15.1991 -13.2680 -13.2563 -13.0403 -13.0370 -13.0327 -13.0318 -12.9597
   -12.9575 -11.3421 -11.3401 -11.3292 -10.6572 -10.6532  -9.8730  -9.8727
    -9.6979  -9.3732  -9.3636  -9.3455  -9.0419  -9.0332  -9.0327  -9.0322
    -8.7592  -8.7209  -8.2243  -8.2124  -7.5519  -7.5373  -7.3015  -7.2371
    -7.2128  -6.8112  -6.7313  -6.5675  -6.5624  -6.1028  -6.0853  -6.0845
    -6.0799  -5.0864  -5.0636  -4.6140  -4.5907  -4.0736  -4.0479  -0.8635
    -0.8619   0.3973   0.4129   0.4397   0.5087   0.5562   1.0327   1.3491
     1.3816   1.3881   1.4140   1.4358

          k =-0.1667 0.0000 0.0000 ( 31854 PWs)   bands (ev):

   -21.3705 -21.3648 -19.9286 -19.9219 -19.9217 -19.9205 -19.6009 -17.6063
   -17.6046 -16.8659 -16.8499 -16.6752 -16.6747 -16.2657 -16.2654 -15.5861
   -15.5852 -15.1996 -15.1923 -13.2598 -13.2372 -12.9642 -12.9638 -11.3367
   -11.3350 -11.2982 -10.6589 -10.6414 -10.2290 -10.2281 -10.2209 -10.2158
    -9.7662  -9.3674  -9.3663  -9.3421  -8.8984  -8.8975  -8.8650  -8.8633
    -8.8568  -8.8506  -8.8047  -8.7512  -7.7469  -7.6555  -7.6469  -7.6440
    -7.2304  -7.2186  -7.2147  -6.7894  -6.6227  -6.5583  -6.5564  -5.1039
    -5.0472  -4.7653  -4.7423  -4.5837  -4.4902  -4.0862  -4.0501  -0.8644
    -0.8567  -0.6491  -0.6248   0.4171   0.5020   0.5118   0.5391   0.5696
     0.7989   1.3513   1.3892   2.1356

          k =-0.1667 0.0722 0.0000 ( 31908 PWs)   bands (ev):

   -21.2793 -21.2737 -20.5536 -20.5484 -19.6033 -19.1278 -19.1226 -17.5243
   -17.5225 -17.0987 -17.0974 -16.9322 -16.9280 -16.8626 -16.8436 -15.1858
   -15.1854 -14.2558 -14.2520 -13.5130 -13.5124 -13.2600 -13.2360 -11.4679
   -11.4678 -11.2948 -10.7704 -10.7699 -10.5558 -10.5384  -9.7627  -9.6926
    -9.6755  -9.3438  -9.2822  -9.2642  -9.2049  -9.1828  -9.1674  -9.1656
    -8.8054  -8.7690  -8.3915  -8.3806  -7.8603  -7.8532  -7.5943  -7.5790
    -7.3107  -6.8059  -6.7481  -6.7307  -6.6149  -6.5862  -6.5783  -5.0609
    -5.0018  -4.8121  -4.8068  -4.7037  -4.6460  -4.4960  -4.4807  -0.4927
    -0.4672  -0.2193  -0.2038   0.2710   0.3214   0.5214   0.5796   0.5926
     0.9178   1.4764   1.5062   1.6289

          k =-0.1667-0.1443 0.0000 ( 31784 PWs)   bands (ev):

   -21.0111 -21.0080 -21.0015 -20.9936 -19.6029 -18.1785 -18.1706 -18.1696
   -18.1695 -17.2932 -17.2861 -17.2811 -17.2778 -16.8652 -16.8465 -14.4013
   -14.3970 -14.3966 -14.3924 -13.2610 -13.2353 -12.8690 -12.8669 -12.8662
   -12.8641 -11.2904 -10.2423 -10.2404 -10.2255 -10.2229  -9.8860  -9.8801
    -9.8661  -9.8593  -9.7580  -9.3444  -8.9812  -8.9707  -8.9509  -8.9266
    -8.7536  -8.7172  -8.3378  -8.3265  -8.3224  -8.3154  -7.2991  -7.0197
    -7.0181  -7.0055  -7.0016  -6.8111  -6.6183  -5.7202  -5.6973  -5.6773
    -5.6708  -4.9817  -4.8941  -4.8936  -4.8739  -4.5782  -4.5083  -0.1359
    -0.0908  -0.0890  -0.0699   0.4927   0.5456   0.7015   1.0297   1.1179
     1.1222   1.1576   1.1799   1.3424

          k =-0.0833 0.0722 0.0000 ( 31951 PWs)   bands (ev):

   -21.6421 -20.9130 -20.6710 -19.9520 -19.6055 -19.4767 -18.7734 -18.5438
   -18.0845 -17.4264 -16.8677 -16.8416 -16.8151 -16.5600 -16.1855 -15.0886
   -14.6031 -14.5058 -13.9894 -13.8647 -13.2679 -13.2552 -12.1754 -12.1601
   -11.9369 -11.7282 -11.4729 -11.3385 -10.6789 -10.2972  -9.7064  -9.6973
    -9.6678  -9.6418  -9.3456  -9.3064  -9.1091  -8.8711  -8.7349  -8.7308
    -8.7104  -8.5910  -8.5120  -8.4364  -8.1150  -7.7187  -7.4766  -7.3284
    -7.2906  -7.1110  -6.8011  -6.7271  -6.3932  -6.3359  -6.0843  -6.0022
    -5.6876  -5.0791  -4.7106  -4.5969  -4.5021  -3.9715  -3.7230  -1.0063
    -0.6862  -0.5237  -0.0388   0.2201   0.4233   0.5061   0.7733   0.9832
     1.3926   1.5364   1.7145   1.9357

     the Fermi energy is    -2.3156 ev

!    total energy              =    -351.27694883 Ry
     Harris-Foulkes estimate   =    -351.27694884 Ry
     estimated scf accuracy    <       0.00000020 Ry

     The total energy is the sum of the following terms:

     one-electron contribution =   -4633.01025275 Ry
     hartree contribution      =    2336.59883397 Ry
     xc contribution           =    -112.26995068 Ry
     ewald contribution        =    2057.40723706 Ry
     smearing contrib. (-TS)   =      -0.00281643 Ry

     convergence has been achieved in   7 iterations

     Forces acting on atoms (cartesian axes, Ry/au):

     atom    1 type  1   force =     0.00031351    0.00152096   -0.00278372
     atom    2 type  1   force =     0.00007107    0.00009754   -0.00146074
     atom    3 type  1   force =    -0.00183134   -0.00121227   -0.00275338
     atom    4 type  1   force =    -0.00052279    0.00235313    0.00419062
     atom    5 type  1   force =    -0.00054136   -0.00235836    0.00419367
     atom    6 type  1   force =    -0.00185771    0.00120817   -0.00275097
     atom    7 type  1   force =     0.00009644   -0.00010057   -0.00145834
     atom    8 type  1   force =     0.00033839   -0.00152791   -0.00278396
     atom    9 type  1   force =    -0.00033839    0.00152791   -0.00278396
     atom   10 type  1   force =     0.00002668   -0.00289738   -0.00169938
     atom   11 type  1   force =    -0.00002170   -0.00102622    0.00203202
     atom   12 type  1   force =     0.00054136    0.00235836    0.00419367
     atom   13 type  1   force =     0.00052279   -0.00235313    0.00419062
     atom   14 type  1   force =     0.00002170    0.00102622    0.00203202
     atom   15 type  1   force =    -0.00002668    0.00289738   -0.00169938
     atom   16 type  1   force =    -0.00031351   -0.00152096   -0.00278372
     atom   17 type  1   force =     0.00002290    0.00035659    0.00108270
     atom   18 type  1   force =    -0.00009644    0.00010057   -0.00145834
     atom   19 type  1   force =     0.00185771   -0.00120817   -0.00275097
     atom   20 type  1   force =    -0.00002339   -0.00123255   -0.00010418
     atom   21 type  1   force =     0.00002339    0.00123255   -0.00010418
     atom   22 type  1   force =     0.00183134    0.00121227   -0.00275338
     atom   23 type  1   force =    -0.00007107   -0.00009754   -0.00146074
     atom   24 type  1   force =    -0.00002290   -0.00035659    0.00108270
     atom   25 type  1   force =    -0.00082677   -0.00185229    0.00293701
     atom   26 type  1   force =     0.00052682    0.00285994    0.00268293
     atom   27 type  1   force =    -0.00374384   -0.00264853    0.00250896
     atom   28 type  1   force =     0.00082677    0.00185229    0.00293701
     atom   29 type  1   force =    -0.00052682   -0.00285994    0.00268293
     atom   30 type  1   force =     0.00374384    0.00264853    0.00250896
     atom   31 type  2   force =     0.00306065   -0.00283366   -0.00135914
     atom   32 type  2   force =    -0.00326515   -0.00367822   -0.00128432
     atom   33 type  2   force =    -0.00850498    0.00024814   -0.00118981
     atom   34 type  2   force =    -0.00306065    0.00283366   -0.00135914
     atom   35 type  2   force =     0.00326515    0.00367822   -0.00128432
     atom   36 type  2   force =     0.00850498   -0.00024814   -0.00118981

     Total force =     0.024094     Total SCF correction =     0.001077

     number of scf cycles    =  19
     number of bfgs steps    =  18

     energy   old            =    -351.2758272211 Ry
     energy   new            =    -351.2769488258 Ry

     CASE: energy  _new < energy  _old

     new trust radius        =       0.0438901255 bohr
     new conv_thr            =       0.0000008505 Ry


ATOMIC_POSITIONS (angstrom)
C        1.231110958   0.001439530  -0.081103696
C        0.001204589   0.710196715  -0.101733035
C        0.001858472   2.130913731  -0.162690270
C        1.229862928   2.840304059  -0.235049165
C        1.229854233   4.261102735  -0.235054647
C        0.001847236   4.970493241  -0.162699897
C        0.001215220   6.391209109  -0.101741192
C        1.231119933   7.099965086  -0.081108258
C        3.688880067   0.001443225  -0.081108258
C        2.460010663   0.713109954  -0.122756384
C        2.459989835   2.130082663  -0.220557672
C        3.690145767   2.840305576  -0.235054647
C        3.690137072   4.261104252  -0.235049165
C        2.460010165   4.971325648  -0.220557672
C        2.459989337   6.388298357  -0.122756384
C        3.688889042   7.099968781  -0.081103696
C        6.150010338   0.000896626  -0.079759984
C        4.918784780   0.710199202  -0.101741192
C        4.918152764   2.130915070  -0.162699897
C        6.149989571   2.840709281  -0.162992714
C        6.150010429   4.260699030  -0.162992714
C        4.918141528   4.970494580  -0.162690270
C        4.918795411   6.391211596  -0.101733035
C        6.149989662   7.100511685  -0.079759984
C        3.155236766   2.339138284   3.285743321
C        1.764068624   2.340295468   3.285923631
C        1.071949350   3.549515657   3.286200702
C        1.764763234   4.762270027   3.285743321
C        3.155931376   4.761112843   3.285923631
C        3.848050650   3.551892654   3.286200702
H        3.699948628   1.400771472   3.296295360
H        1.219246082   1.399677713   3.296215543
H       -0.009307077   3.550541261   3.296868357
H        1.220051372   5.700636839   3.296295360
H        3.700753918   5.701730598   3.296215543
H        4.929307077   3.550867050   3.296868357



     Writing output data file batch_graph+benzene.save/
     NEW-OLD atomic charge density approx. for the potential

     negative rho (up, down):  2.135E-04 0.000E+00

     total cpu time spent up to now is      618.7 secs

     Self-consistent Calculation

     iteration #  1     ecut=    32.00 Ry     beta= 0.50
     Davidson diagonalization with overlap
     ethr =  1.00E-06,  avg # of iterations =  5.0

     negative rho (up, down):  2.130E-04 0.000E+00

     total cpu time spent up to now is      682.9 secs

     total energy              =    -351.27653847 Ry
     Harris-Foulkes estimate   =    -351.27912002 Ry
     estimated scf accuracy    <       0.00587123 Ry

     iteration #  2     ecut=    32.00 Ry     beta= 0.50
     Davidson diagonalization with overlap
     ethr =  4.66E-06,  avg # of iterations =  2.8

     negative rho (up, down):  2.316E-04 0.000E+00

     total cpu time spent up to now is      718.0 secs

     total energy              =    -351.27749172 Ry
     Harris-Foulkes estimate   =    -351.27780167 Ry
     estimated scf accuracy    <       0.00093253 Ry

     iteration #  3     ecut=    32.00 Ry     beta= 0.50
     Davidson diagonalization with overlap
     ethr =  7.40E-07,  avg # of iterations =  3.0

     negative rho (up, down):  2.334E-04 0.000E+00

     total cpu time spent up to now is      751.8 secs

     total energy              =    -351.27765875 Ry
     Harris-Foulkes estimate   =    -351.27767225 Ry
     estimated scf accuracy    <       0.00016187 Ry

     iteration #  4     ecut=    32.00 Ry     beta= 0.50
     Davidson diagonalization with overlap
     ethr =  1.28E-07,  avg # of iterations =  2.0

     negative rho (up, down):  2.296E-04 0.000E+00

     total cpu time spent up to now is      783.4 secs

     total energy              =    -351.27767854 Ry
     Harris-Foulkes estimate   =    -351.27768010 Ry
     estimated scf accuracy    <       0.00001864 Ry

     iteration #  5     ecut=    32.00 Ry     beta= 0.50
     Davidson diagonalization with overlap
     ethr =  1.48E-08,  avg # of iterations =  2.2

     negative rho (up, down):  2.193E-04 0.000E+00

     total cpu time spent up to now is      814.9 secs

     total energy              =    -351.27768271 Ry
     Harris-Foulkes estimate   =    -351.27768354 Ry
     estimated scf accuracy    <       0.00000523 Ry

     iteration #  6     ecut=    32.00 Ry     beta= 0.50
     Davidson diagonalization with overlap
     ethr =  4.15E-09,  avg # of iterations =  2.2

     negative rho (up, down):  2.136E-04 0.000E+00

     total cpu time spent up to now is      845.0 secs

     End of self-consistent calculation

          k = 0.0000 0.0000 0.0000 ( 31971 PWs)   bands (ev):

   -21.8532 -20.3985 -20.3977 -19.9208 -19.9179 -19.5807 -18.5143 -18.5107
   -18.5105 -18.5064 -16.8576 -16.8077 -16.6817 -15.5784 -15.0171 -15.0093
   -15.0057 -14.9986 -13.2980 -13.2356 -13.0344 -13.0304 -13.0284 -13.0266
   -12.8883 -12.8856 -11.3613 -10.2277 -10.2195  -9.9717  -9.8758  -9.8353
    -9.6562  -9.3362  -9.0393  -9.0392  -9.0369  -9.0364  -8.8885  -8.8551
    -8.8480  -8.7546  -8.5923  -8.2363  -8.1893  -7.6940  -7.6521  -7.5382
    -7.5260  -7.2568  -6.8895  -6.7696  -6.1010  -6.0919  -6.0850  -6.0727
    -5.5688  -5.5686  -4.7473  -4.5792  -4.5562  -2.3270  -2.3193  -2.3049
    -2.2985  -0.6344  -0.1101   0.3809   0.4651   0.6787   1.4003   1.4130
     1.4182   1.4634   1.4950   1.8989

          k = 0.0000 0.0722 0.0000 ( 31929 PWs)   bands (ev):

   -21.7615 -21.0311 -19.8314 -19.8288 -19.5997 -19.5741 -19.1220 -19.1176
   -17.7471 -17.7436 -17.5339 -16.8571 -16.8076 -15.8806 -15.8783 -14.5931
   -14.4779 -14.4758 -13.6306 -13.6268 -13.2965 -13.2355 -12.3699 -12.3675
   -12.3083 -12.3029 -11.5055 -11.3563 -10.6847 -10.6772 -10.0776 -10.0774
    -9.8273  -9.6513  -9.3369  -8.9835  -8.7979  -8.7293  -8.5903  -8.5466
    -8.5387  -8.3759  -8.3719  -8.3008  -8.1021  -7.6157  -7.5422  -7.3494
    -7.2020  -6.8932  -6.8865  -6.8227  -6.7232  -6.7068  -5.9330  -5.7657
    -5.2849  -5.2782  -5.2061  -4.6092  -4.5730  -3.3252  -3.3215  -1.3339
    -1.3323  -0.0287   0.0552   0.3804   0.3973   0.5386   0.6144   0.8086
     1.2550   1.7101   1.8435   2.2055

          k = 0.0000-0.1443 0.0000 ( 31940 PWs)   bands (ev):

   -21.4943 -21.4794 -19.5961 -19.5721 -19.5666 -19.5558 -19.5390 -18.6335
   -18.6208 -16.8704 -16.8609 -16.8526 -16.8433 -16.8293 -16.8038 -14.1007
   -14.0963 -14.0912 -14.0893 -13.2960 -13.2364 -13.1059 -13.1017 -11.5047
   -11.4942 -11.4858 -11.4837 -11.3523 -11.2768 -11.2729 -11.2689 -11.2689
    -9.6467  -9.5133  -9.4982  -9.3376  -8.7529  -8.5878  -8.5372  -8.5245
    -8.2380  -8.2355  -8.2316  -8.2281  -7.4687  -7.2627  -7.2491  -7.2408
    -7.0975  -6.9297  -6.9166  -6.8813  -6.7700  -6.2674  -6.2456  -6.2238
    -6.2153  -4.6885  -4.6338  -4.3325  -4.3273  -4.2864  -4.2669  -0.4121
    -0.4109  -0.3947  -0.3939   0.2577   0.3807   0.4898   0.8356   1.1728
     1.2393   1.4797   1.5057   2.0116

          k = 0.0833 0.0000 0.0000 ( 31951 PWs)   bands (ev):

   -21.7308 -20.7587 -20.2787 -20.2779 -19.5806 -19.3270 -19.3264 -18.8581
   -17.5028 -17.5022 -16.8573 -16.8187 -16.5772 -16.2184 -15.7412 -15.4775
   -14.8276 -14.5696 -14.5694 -14.0840 -13.2696 -13.2353 -12.3517 -12.1091
   -11.6650 -11.4386 -11.4381 -11.3219 -10.1286  -9.9228  -9.9005  -9.7642
    -9.7073  -9.3968  -9.3335  -9.1157  -9.1139  -8.9371  -8.9360  -8.7536
    -8.7470  -8.7007  -8.5953  -8.0949  -8.0518  -7.9935  -7.9932  -7.6194
    -7.3238  -6.9768  -6.9293  -6.7744  -6.7463  -6.4250  -6.0478  -5.8280
    -5.1828  -5.1667  -4.6756  -4.5834  -4.4750  -3.6049  -3.3356  -1.3600
    -1.0302  -0.6711  -0.0227   0.0150   0.0904   0.4629   0.5405   0.8524
     1.4224   1.6614   2.1947   2.2443

          k = 0.0833 0.0722 0.0000 ( 31951 PWs)   bands (ev):

   -21.6393 -20.9101 -20.6682 -19.9491 -19.5806 -19.4738 -18.7706 -18.5410
   -18.0817 -17.4236 -16.8601 -16.8254 -16.8094 -16.5574 -16.1826 -15.0862
   -14.6010 -14.5022 -13.9859 -13.8623 -13.2685 -13.2360 -12.1733 -12.1573
   -11.9347 -11.7250 -11.4693 -11.3173 -10.6765 -10.2946  -9.7050  -9.6936
    -9.6643  -9.6400  -9.3342  -9.3046  -9.1078  -8.8612  -8.7318  -8.7269
    -8.7052  -8.5902  -8.5082  -8.4320  -8.1120  -7.7120  -7.4733  -7.3204
    -7.2894  -7.1101  -6.7852  -6.7483  -6.3901  -6.3329  -6.0816  -5.9985
    -5.6822  -5.0746  -4.7064  -4.5970  -4.5060  -3.9704  -3.7201  -1.0039
    -0.6815  -0.5199  -0.0347   0.2135   0.4218   0.4755   0.7684   0.9806
     1.3863   1.5293   1.7175   1.9262

          k = 0.0833-0.1443 0.0000 ( 31876 PWs)   bands (ev):

   -21.3725 -21.3576 -20.4046 -20.3901 -19.5796 -18.5191 -18.5171 -18.5057
   -18.5020 -17.6119 -17.5990 -16.8577 -16.8189 -16.2548 -16.2538 -15.1992
   -15.1968 -13.2683 -13.2373 -13.0409 -13.0339 -13.0320 -13.0235 -12.9555
   -12.9553 -11.3415 -11.3331 -11.3113 -10.6522 -10.6520  -9.8781  -9.8635
    -9.6990  -9.3691  -9.3560  -9.3347  -9.0379  -9.0349  -9.0333  -9.0244
    -8.7519  -8.7166  -8.2171  -8.2099  -7.5418  -7.5410  -7.2950  -7.2237
    -7.2189  -6.7939  -6.7534  -6.5713  -6.5556  -6.0951  -6.0813  -6.0811
    -6.0795  -5.0767  -5.0636  -4.6124  -4.5964  -4.0681  -4.0497  -0.8617
    -0.8573   0.3908   0.3981   0.4339   0.5154   0.5407   1.0275   1.3479
     1.3846   1.3973   1.4122   1.4401

          k =-0.1667 0.0000 0.0000 ( 31854 PWs)   bands (ev):

   -21.3683 -21.3614 -19.9253 -19.9204 -19.9187 -19.9164 -19.5763 -17.6032
   -17.6020 -16.8582 -16.8309 -16.6722 -16.6718 -16.2637 -16.2630 -15.5835
   -15.5834 -15.1952 -15.1888 -13.2480 -13.2296 -12.9626 -12.9620 -11.3328
   -11.3310 -11.2767 -10.6579 -10.6385 -10.2272 -10.2234 -10.2177 -10.2116
    -9.7705  -9.3622  -9.3616  -9.3307  -8.8955  -8.8940  -8.8629  -8.8622
    -8.8545  -8.8474  -8.8023  -8.7418  -7.7334  -7.6520  -7.6454  -7.6405
    -7.2306  -7.2190  -7.2115  -6.7688  -6.6474  -6.5536  -6.5526  -5.0947
    -5.0435  -4.7552  -4.7379  -4.5876  -4.4965  -4.0852  -4.0505  -0.8591
    -0.8505  -0.6447  -0.6209   0.4182   0.5037   0.5044   0.5078   0.5601
     0.7924   1.3493   1.3858   2.1310

          k =-0.1667 0.0722 0.0000 ( 31908 PWs)   bands (ev):

   -21.2770 -21.2703 -20.5513 -20.5450 -19.5782 -19.1254 -19.1194 -17.5212
   -17.5199 -17.0962 -17.0941 -16.9278 -16.9252 -16.8554 -16.8261 -15.1834
   -15.1832 -14.2519 -14.2488 -13.5109 -13.5102 -13.2477 -13.2290 -11.4651
   -11.4633 -11.2730 -10.7672 -10.7663 -10.5549 -10.5355  -9.7670  -9.6918
    -9.6729  -9.3321  -9.2799  -9.2563  -9.2045  -9.1762  -9.1646  -9.1622
    -8.8026  -8.7594  -8.3856  -8.3784  -7.8589  -7.8500  -7.5943  -7.5753
    -7.3028  -6.7867  -6.7453  -6.7280  -6.6363  -6.5868  -6.5723  -5.0511
    -4.9979  -4.8035  -4.7988  -4.7008  -4.6439  -4.5040  -4.4896  -0.4882
    -0.4636  -0.2141  -0.1983   0.2745   0.3233   0.5076   0.5490   0.5842
     0.9123   1.4734   1.5032   1.6221

          k =-0.1667-0.1443 0.0000 ( 31784 PWs)   bands (ev):

   -21.0100 -21.0061 -20.9979 -20.9887 -19.5778 -18.1781 -18.1732 -18.1650
   -18.1607 -17.2901 -17.2859 -17.2760 -17.2744 -16.8577 -16.8280 -14.4061
   -14.3969 -14.3918 -14.3832 -13.2480 -13.2289 -12.8658 -12.8647 -12.8623
   -12.8592 -11.2685 -10.2479 -10.2328 -10.2275 -10.2153  -9.8785  -9.8772
    -9.8617  -9.8614  -9.7626  -9.3326  -8.9728  -8.9642  -8.9405  -8.9252
    -8.7541  -8.7126  -8.3337  -8.3292  -8.3201  -8.3094  -7.2924  -7.0131
    -7.0083  -7.0065  -7.0050  -6.7905  -6.6429  -5.7062  -5.6955  -5.6746
    -5.6738  -4.9692  -4.8905  -4.8871  -4.8693  -4.5894  -4.5142  -0.1227
    -0.0940  -0.0865  -0.0678   0.4788   0.5206   0.6905   1.0250   1.1234
     1.1278   1.1676   1.1708   1.3373

          k =-0.0833 0.0722 0.0000 ( 31951 PWs)   bands (ev):

   -21.6393 -20.9101 -20.6682 -19.9491 -19.5806 -19.4738 -18.7706 -18.5410
   -18.0817 -17.4236 -16.8585 -16.8293 -16.8071 -16.5573 -16.1826 -15.0862
   -14.6010 -14.5022 -13.9859 -13.8623 -13.2685 -13.2360 -12.1733 -12.1573
   -11.9347 -11.7250 -11.4693 -11.3173 -10.6765 -10.2946  -9.7054  -9.6933
    -9.6643  -9.6400  -9.3343  -9.3046  -9.1078  -8.8619  -8.7298  -8.7264
    -8.7066  -8.5903  -8.5084  -8.4320  -8.1120  -7.7121  -7.4733  -7.3204
    -7.2894  -7.1101  -6.7838  -6.7496  -6.3901  -6.3328  -6.0817  -5.9986
    -5.6824  -5.0747  -4.6978  -4.6110  -4.5003  -3.9702  -3.7202  -1.0039
    -0.6814  -0.5196  -0.0347   0.2138   0.4089   0.4909   0.7658   0.9805
     1.3854   1.5287   1.7175   1.9267

     the Fermi energy is    -2.3124 ev

!    total energy              =    -351.27768381 Ry
     Harris-Foulkes estimate   =    -351.27768370 Ry
     estimated scf accuracy    <       0.00000044 Ry

     The total energy is the sum of the following terms:

     one-electron contribution =   -4617.69527708 Ry
     hartree contribution      =    2328.94176161 Ry
     xc contribution           =    -112.24223477 Ry
     ewald contribution        =    2049.72088255 Ry
     smearing contrib. (-TS)   =      -0.00281613 Ry

     convergence has been achieved in   6 iterations

     Forces acting on atoms (cartesian axes, Ry/au):

     atom    1 type  1   force =    -0.00005610   -0.00183680   -0.00395727
     atom    2 type  1   force =    -0.00063743    0.00162249   -0.00042616
     atom    3 type  1   force =    -0.00143114    0.00006649   -0.00153702
     atom    4 type  1   force =     0.00017692   -0.00079211    0.00398801
     atom    5 type  1   force =     0.00021471    0.00080240    0.00398524
     atom    6 type  1   force =    -0.00138582   -0.00006028   -0.00153599
     atom    7 type  1   force =    -0.00068278   -0.00161342   -0.00042256
     atom    8 type  1   force =    -0.00009481    0.00184905   -0.00395497
     atom    9 type  1   force =     0.00009481   -0.00184905   -0.00395497
     atom   10 type  1   force =    -0.00004329   -0.00124398   -0.00114835
     atom   11 type  1   force =     0.00004229    0.00085901    0.00292422
     atom   12 type  1   force =    -0.00021471   -0.00080240    0.00398524
     atom   13 type  1   force =    -0.00017692    0.00079211    0.00398801
     atom   14 type  1   force =    -0.00004229   -0.00085901    0.00292422
     atom   15 type  1   force =     0.00004329    0.00124398   -0.00114835
     atom   16 type  1   force =     0.00005610    0.00183680   -0.00395727
     atom   17 type  1   force =    -0.00004104   -0.00147646    0.00094111
     atom   18 type  1   force =     0.00068278    0.00161342   -0.00042256
     atom   19 type  1   force =     0.00138582    0.00006028   -0.00153599
     atom   20 type  1   force =     0.00004198   -0.00122677   -0.00195157
     atom   21 type  1   force =    -0.00004198    0.00122677   -0.00195157
     atom   22 type  1   force =     0.00143114   -0.00006649   -0.00153702
     atom   23 type  1   force =     0.00063743   -0.00162249   -0.00042616
     atom   24 type  1   force =     0.00004104    0.00147646    0.00094111
     atom   25 type  1   force =     0.00436675    0.00544104    0.00235427
     atom   26 type  1   force =    -0.00331537   -0.00169913    0.00224858
     atom   27 type  1   force =     0.00203729    0.00454065    0.00200142
     atom   28 type  1   force =    -0.00436675   -0.00544104    0.00235427
     atom   29 type  1   force =     0.00331537    0.00169913    0.00224858
     atom   30 type  1   force =    -0.00203729   -0.00454065    0.00200142
     atom   31 type  2   force =     0.00151916   -0.00156777   -0.00122142
     atom   32 type  2   force =    -0.00050092    0.00050894   -0.00120302
     atom   33 type  2   force =    -0.00627066   -0.00015473   -0.00108450
     atom   34 type  2   force =    -0.00151916    0.00156777   -0.00122142
     atom   35 type  2   force =     0.00050092   -0.00050894   -0.00120302
     atom   36 type  2   force =     0.00627066    0.00015473   -0.00108450

     Total force =     0.022698     Total SCF correction =     0.000983

     number of scf cycles    =  20
     number of bfgs steps    =  19

     energy   old            =    -351.2769488258 Ry
     energy   new            =    -351.2776838132 Ry

     CASE: energy  _new < energy  _old

     new trust radius        =       0.0497677374 bohr
     new conv_thr            =       0.0000006271 Ry


ATOMIC_POSITIONS (angstrom)
C        1.231191185   0.000316709  -0.092030486
C        0.001173228   0.709886414  -0.118150064
C        0.001045888   2.130235431  -0.178133182
C        1.229525176   2.839508715  -0.242016933
C        1.229528006   4.261902376  -0.242023938
C        0.001047367   4.971173832  -0.178141848
C        0.001172046   6.391522872  -0.118155271
C        1.231188924   7.101093321  -0.092034161
C        3.688811076   0.000314990  -0.092034161
C        2.459998235   0.712928821  -0.133020968
C        2.460003014   2.130629887  -0.228937898
C        3.690471994   2.839505936  -0.242023938
C        3.690474824   4.261899596  -0.242016933
C        2.459996986   4.970778424  -0.228937898
C        2.460001765   6.388479490  -0.133020968
C        3.688808815   7.101091602  -0.092030486
C        6.150000206   0.000480170  -0.094013501
C        4.918827954   0.709885439  -0.118155271
C        4.918952633   2.130234479  -0.178141848
C        6.150001585   2.840312971  -0.174195504
C        6.149998415   4.261095340  -0.174195504
C        4.918954112   4.971172880  -0.178133182
C        4.918826772   6.391521898  -0.118150064
C        6.149999794   7.100928141  -0.094013501
C        3.158128861   2.339519074   3.309662721
C        1.761747561   2.338039111   3.309613225
C        1.067447797   3.551356420   3.309722082
C        1.761871139   4.761889237   3.309662721
C        3.158252439   4.763369200   3.309613225
C        3.852552203   3.550051891   3.309722082
H        3.703816366   1.396569744   3.320394637
H        1.215996368   1.396507087   3.320345315
H       -0.019585437   3.550563798   3.321115773
H        1.216183634   5.704838567   3.320394637
H        3.704003632   5.704901224   3.320345315
H        4.939585437   3.550844513   3.321115773



     Writing output data file batch_graph+benzene.save/
     NEW-OLD atomic charge density approx. for the potential

     negative rho (up, down):  2.115E-04 0.000E+00

     total cpu time spent up to now is      860.3 secs

     Self-consistent Calculation

     iteration #  1     ecut=    32.00 Ry     beta= 0.50
     Davidson diagonalization with overlap
     ethr =  1.00E-06,  avg # of iterations =  5.0

     negative rho (up, down):  2.107E-04 0.000E+00

     total cpu time spent up to now is      924.6 secs

     total energy              =    -351.27690070 Ry
     Harris-Foulkes estimate   =    -351.27983193 Ry
     estimated scf accuracy    <       0.00668040 Ry

     iteration #  2     ecut=    32.00 Ry     beta= 0.50
     Davidson diagonalization with overlap
     ethr =  5.30E-06,  avg # of iterations =  2.3

     negative rho (up, down):  2.325E-04 0.000E+00

     total cpu time spent up to now is      959.5 secs

     total energy              =    -351.27798137 Ry
     Harris-Foulkes estimate   =    -351.27834114 Ry
     estimated scf accuracy    <       0.00107107 Ry

     iteration #  3     ecut=    32.00 Ry     beta= 0.50
     Davidson diagonalization with overlap
     ethr =  8.50E-07,  avg # of iterations =  2.6

     negative rho (up, down):  2.310E-04 0.000E+00

     total cpu time spent up to now is      993.0 secs

     total energy              =    -351.27817397 Ry
     Harris-Foulkes estimate   =    -351.27819266 Ry
     estimated scf accuracy    <       0.00019036 Ry

     iteration #  4     ecut=    32.00 Ry     beta= 0.50
     Davidson diagonalization with overlap
     ethr =  1.51E-07,  avg # of iterations =  2.0

     negative rho (up, down):  2.258E-04 0.000E+00

     total cpu time spent up to now is     1024.2 secs

     total energy              =    -351.27819685 Ry
     Harris-Foulkes estimate   =    -351.27820199 Ry
     estimated scf accuracy    <       0.00002857 Ry

     iteration #  5     ecut=    32.00 Ry     beta= 0.50
     Davidson diagonalization with overlap
     ethr =  2.27E-08,  avg # of iterations =  2.2

     negative rho (up, down):  2.177E-04 0.000E+00

     total cpu time spent up to now is     1055.2 secs

     total energy              =    -351.27820347 Ry
     Harris-Foulkes estimate   =    -351.27820461 Ry
     estimated scf accuracy    <       0.00000688 Ry

     iteration #  6     ecut=    32.00 Ry     beta= 0.50
     Davidson diagonalization with overlap
     ethr =  5.46E-09,  avg # of iterations =  2.2

     negative rho (up, down):  2.112E-04 0.000E+00

     total cpu time spent up to now is     1085.1 secs

     End of self-consistent calculation

          k = 0.0000 0.0000 0.0000 ( 31971 PWs)   bands (ev):

   -21.8496 -20.3952 -20.3937 -19.9167 -19.9146 -19.5504 -18.5099 -18.5081
   -18.5066 -18.5026 -16.8269 -16.8029 -16.6774 -15.5758 -15.0114 -15.0064
   -15.0002 -14.9975 -13.2732 -13.2327 -13.0291 -13.0258 -13.0244 -13.0244
   -12.8844 -12.8831 -11.3325 -10.2214 -10.2162  -9.9671  -9.8719  -9.8327
    -9.6498  -9.3243  -9.0371  -9.0353  -9.0335  -9.0329  -8.8840  -8.8510
    -8.8458  -8.7309  -8.5883  -8.2291  -8.1856  -7.6854  -7.6479  -7.5331
    -7.5216  -7.2506  -6.8906  -6.7762  -6.0953  -6.0859  -6.0814  -6.0707
    -5.5662  -5.5633  -4.7351  -4.5916  -4.5542  -2.3195  -2.3126  -2.3025
    -2.2971  -0.6301  -0.1208   0.3665   0.4349   0.6767   1.4069   1.4183
     1.4215   1.4658   1.4866   1.8877

          k = 0.0000 0.0722 0.0000 ( 31929 PWs)   bands (ev):

   -21.7579 -21.0275 -19.8273 -19.8254 -19.5920 -19.5479 -19.1178 -19.1145
   -17.7431 -17.7403 -17.5301 -16.8264 -16.8028 -15.8769 -15.8746 -14.5900
   -14.4733 -14.4727 -13.6258 -13.6237 -13.2717 -13.2327 -12.3658 -12.3645
   -12.3033 -12.3002 -11.5022 -11.3276 -10.6790 -10.6742 -10.0742 -10.0738
    -9.8225  -9.6449  -9.3250  -8.9745  -8.7934  -8.7103  -8.5865  -8.5423
    -8.5375  -8.3714  -8.3693  -8.2974  -8.0975  -7.6040  -7.5377  -7.3423
    -7.1980  -6.8882  -6.8874  -6.8223  -6.7214  -6.7100  -5.9304  -5.7604
    -5.2785  -5.2730  -5.2004  -4.6010  -4.5867  -3.3211  -3.3177  -1.3287
    -1.3276  -0.0344   0.0553   0.3670   0.3881   0.5372   0.6020   0.8063
     1.2469   1.6981   1.8416   2.2057

          k = 0.0000-0.1443 0.0000 ( 31940 PWs)   bands (ev):

   -21.4926 -21.4739 -19.5732 -19.5705 -19.5645 -19.5490 -19.5273 -18.6239
   -18.6231 -16.8549 -16.8499 -16.8466 -16.8435 -16.8161 -16.7990 -14.0975
   -14.0950 -14.0852 -14.0844 -13.2712 -13.2336 -13.1027 -13.0983 -11.4912
   -11.4887 -11.4865 -11.4855 -11.3236 -11.2763 -11.2680 -11.2671 -11.2624
    -9.6402  -9.5092  -9.4909  -9.3257  -8.7320  -8.5841  -8.5307  -8.5220
    -8.2360  -8.2359  -8.2283  -8.2201  -7.4509  -7.2604  -7.2458  -7.2327
    -7.0958  -6.9338  -6.9081  -6.8827  -6.7786  -6.2531  -6.2496  -6.2249
    -6.2048  -4.6747  -4.6409  -4.3289  -4.3239  -4.2823  -4.2707  -0.4103
    -0.4021  -0.3930  -0.3844   0.2478   0.3672   0.4570   0.8264   1.1709
     1.2383   1.4798   1.5131   2.0006

          k = 0.0833 0.0000 0.0000 ( 31951 PWs)   bands (ev):

   -21.7272 -20.7551 -20.2754 -20.2738 -19.5501 -19.3232 -19.3230 -18.8545
   -17.4995 -17.4980 -16.8268 -16.8138 -16.5730 -16.2148 -15.7369 -15.4748
   -14.8249 -14.5660 -14.5651 -14.0796 -13.2453 -13.2311 -12.3489 -12.1050
   -11.6604 -11.4351 -11.4337 -11.2918 -10.1259  -9.9192  -9.8966  -9.7604
    -9.7019  -9.3924  -9.3216  -9.1124  -9.1094  -8.9330  -8.9330  -8.7499
    -8.7248  -8.6959  -8.5945  -8.0880  -8.0479  -7.9889  -7.9883  -7.6166
    -7.3124  -6.9715  -6.9272  -6.7751  -6.7492  -6.4210  -6.0425  -5.8255
    -5.1779  -5.1610  -4.6619  -4.5976  -4.4734  -3.6015  -3.3311  -1.3557
    -1.0248  -0.6666  -0.0178   0.0206   0.0804   0.4469   0.5081   0.8504
     1.4122   1.6531   2.1929   2.2444

          k = 0.0833 0.0722 0.0000 ( 31951 PWs)   bands (ev):

   -21.6357 -20.9065 -20.6646 -19.9453 -19.5503 -19.4701 -18.7670 -18.5374
   -18.0780 -17.4198 -16.8300 -16.8229 -16.8030 -16.5536 -16.1790 -15.0823
   -14.5968 -14.4991 -13.9826 -13.8583 -13.2447 -13.2314 -12.1689 -12.1537
   -11.9307 -11.7218 -11.4660 -11.2873 -10.6725 -10.2908  -9.6998  -9.6877
    -9.6627  -9.6359  -9.3223  -9.3001  -9.1034  -8.8487  -8.7293  -8.7217
    -8.6932  -8.5857  -8.5056  -8.4287  -8.1086  -7.7055  -7.4699  -7.3090
    -7.2850  -7.1071  -6.7883  -6.7484  -6.3845  -6.3301  -6.0770  -5.9949
    -5.6779  -5.0674  -4.6956  -4.6077  -4.5059  -3.9668  -3.7169  -0.9984
    -0.6766  -0.5136  -0.0313   0.2053   0.3903   0.4692   0.7634   0.9783
     1.3770   1.5186   1.7228   1.9144

          k = 0.0833-0.1443 0.0000 ( 31876 PWs)   bands (ev):

   -21.3708 -21.3521 -20.4028 -20.3846 -19.5491 -18.5152 -18.5096 -18.5081
   -18.4965 -17.6020 -17.6015 -16.8273 -16.8139 -16.2565 -16.2449 -15.1952
   -15.1928 -13.2448 -13.2321 -13.0321 -13.0315 -13.0269 -13.0252 -12.9559
   -12.9478 -11.3371 -11.3285 -11.2821 -10.6525 -10.6450  -9.8668  -9.8664
    -9.6936  -9.3648  -9.3483  -9.3229  -9.0365  -9.0306  -9.0261  -9.0221
    -8.7308  -8.7179  -8.2091  -8.2077  -7.5444  -7.5318  -7.2848  -7.2277
    -7.2079  -6.7988  -6.7512  -6.5590  -6.5588  -6.0926  -6.0832  -6.0728
    -6.0706  -5.0739  -5.0534  -4.6200  -4.5935  -4.0691  -4.0439  -0.8553
    -0.8522   0.3815   0.3939   0.4070   0.5116   0.5410   1.0197   1.3439
     1.3962   1.4000   1.4165   1.4390

          k =-0.1667 0.0000 0.0000 ( 31854 PWs)   bands (ev):

   -21.3661 -21.3564 -19.9223 -19.9191 -19.9126 -19.9119 -19.5461 -17.5999
   -17.5981 -16.8307 -16.8230 -16.6689 -16.6681 -16.2610 -16.2572 -15.5797
   -15.5793 -15.1944 -15.1843 -13.2382 -13.2098 -12.9583 -12.9574 -11.3294
   -11.3288 -11.2451 -10.6530 -10.6348 -10.2202 -10.2198 -10.2149 -10.2109
    -9.7670  -9.3578  -9.3550  -9.3188  -8.8913  -8.8912  -8.8574  -8.8567
    -8.8499  -8.8457  -8.8095  -8.7186  -7.7210  -7.6483  -7.6431  -7.6334
    -7.2243  -7.2150  -7.2076  -6.7755  -6.6399  -6.5515  -6.5491  -5.0883
    -5.0393  -4.7548  -4.7267  -4.5809  -4.5091  -4.0810  -4.0475  -0.8530
    -0.8478  -0.6380  -0.6150   0.4072   0.4932   0.4933   0.5094   0.5429
     0.7824   1.3475   1.3832   2.1261

          k =-0.1667 0.0722 0.0000 ( 31908 PWs)   bands (ev):

   -21.2749 -21.2653 -20.5491 -20.5398 -19.5476 -19.1233 -19.1143 -17.5179
   -17.5160 -17.0941 -17.0884 -16.9240 -16.9208 -16.8274 -16.8200 -15.1794
   -15.1794 -14.2506 -14.2438 -13.5069 -13.5059 -13.2386 -13.2087 -11.4618
   -11.4600 -11.2412 -10.7636 -10.7636 -10.5499 -10.5319  -9.7635  -9.6866
    -9.6694  -9.3201  -9.2759  -9.2486  -9.1995  -9.1738  -9.1605  -9.1591
    -8.8093  -8.7362  -8.3784  -8.3761  -7.8533  -7.8474  -7.5887  -7.5721
    -7.2918  -6.7917  -6.7439  -6.7221  -6.6295  -6.5819  -6.5706  -5.0443
    -4.9933  -4.8015  -4.7867  -4.6940  -4.6408  -4.5160  -4.4905  -0.4816
    -0.4578  -0.2076  -0.1951   0.2774   0.3283   0.4781   0.5327   0.5731
     0.9037   1.4706   1.5009   1.6118

          k =-0.1667-0.1443 0.0000 ( 31784 PWs)   bands (ev):

   -21.0090 -21.0037 -20.9947 -20.9809 -19.5472 -18.1707 -18.1682 -18.1621
   -18.1612 -17.2912 -17.2818 -17.2722 -17.2665 -16.8291 -16.8216 -14.3949
   -14.3920 -14.3886 -14.3866 -13.2396 -13.2079 -12.8649 -12.8595 -12.8593
   -12.8553 -11.2367 -10.2422 -10.2283 -10.2211 -10.2144  -9.8802  -9.8712
    -9.8614  -9.8527  -9.7591  -9.3206  -8.9674  -8.9545  -8.9283  -8.9235
    -8.7612  -8.6969  -8.3301  -8.3224  -8.3159  -8.3078  -7.2820  -7.0132
    -7.0072  -7.0005  -6.9974  -6.7975  -6.6350  -5.7028  -5.6861  -5.6763
    -5.6634  -4.9580  -4.8897  -4.8852  -4.8647  -4.5827  -4.5292  -0.1226
    -0.0810  -0.0793  -0.0638   0.4462   0.5088   0.6764   1.0171   1.1285
     1.1316   1.1693   1.1768   1.3303

          k =-0.0833 0.0722 0.0000 ( 31951 PWs)   bands (ev):

   -21.6357 -20.9065 -20.6646 -19.9453 -19.5503 -19.4701 -18.7670 -18.5374
   -18.0780 -17.4198 -16.8334 -16.8170 -16.8054 -16.5536 -16.1790 -15.0823
   -14.5968 -14.4991 -13.9826 -13.8583 -13.2447 -13.2314 -12.1689 -12.1538
   -11.9307 -11.7218 -11.4659 -11.2873 -10.6724 -10.2908  -9.6995  -9.6879
    -9.6627  -9.6359  -9.3223  -9.3001  -9.1034  -8.8489  -8.7293  -8.7217
    -8.6930  -8.5857  -8.5056  -8.4288  -8.1086  -7.7055  -7.4699  -7.3090
    -7.2850  -7.1070  -6.7893  -6.7475  -6.3845  -6.3302  -6.0770  -5.9949
    -5.6778  -5.0673  -4.7007  -4.5993  -4.5093  -3.9668  -3.7169  -0.9984
    -0.6767  -0.5138  -0.0312   0.2051   0.3985   0.4594   0.7650   0.9783
     1.3778   1.5188   1.7228   1.9142

     the Fermi energy is    -2.3079 ev

!    total energy              =    -351.27820490 Ry
     Harris-Foulkes estimate   =    -351.27820468 Ry
     estimated scf accuracy    <       0.00000045 Ry

     The total energy is the sum of the following terms:

     one-electron contribution =   -4601.56991975 Ry
     hartree contribution      =    2320.88160561 Ry
     xc contribution           =    -112.20581907 Ry
     ewald contribution        =    2041.61874639 Ry
     smearing contrib. (-TS)   =      -0.00281808 Ry

     convergence has been achieved in   6 iterations

     Forces acting on atoms (cartesian axes, Ry/au):

     atom    1 type  1   force =    -0.00006618    0.00206090   -0.00479726
     atom    2 type  1   force =    -0.00097542    0.00072200    0.00080524
     atom    3 type  1   force =     0.00032565    0.00012951    0.00128250
     atom    4 type  1   force =     0.00024967    0.00221169    0.00264080
     atom    5 type  1   force =     0.00023685   -0.00221782    0.00264622
     atom    6 type  1   force =     0.00032084   -0.00012779    0.00128653
     atom    7 type  1   force =    -0.00097281   -0.00072324    0.00080413
     atom    8 type  1   force =    -0.00005862   -0.00206428   -0.00479648
     atom    9 type  1   force =     0.00005862    0.00206428   -0.00479648
     atom   10 type  1   force =     0.00000848   -0.00171013   -0.00092477
     atom   11 type  1   force =    -0.00001274   -0.00108168    0.00370896
     atom   12 type  1   force =    -0.00023685    0.00221782    0.00264622
     atom   13 type  1   force =    -0.00024967   -0.00221169    0.00264080
     atom   14 type  1   force =     0.00001274    0.00108168    0.00370896
     atom   15 type  1   force =    -0.00000848    0.00171013   -0.00092477
     atom   16 type  1   force =     0.00006618   -0.00206090   -0.00479726
     atom   17 type  1   force =     0.00000048   -0.00017308   -0.00018138
     atom   18 type  1   force =     0.00097281    0.00072324    0.00080413
     atom   19 type  1   force =    -0.00032084    0.00012779    0.00128653
     atom   20 type  1   force =    -0.00000696   -0.00007044   -0.00365088
     atom   21 type  1   force =     0.00000696    0.00007044   -0.00365088
     atom   22 type  1   force =    -0.00032565   -0.00012951    0.00128250
     atom   23 type  1   force =     0.00097542   -0.00072200    0.00080524
     atom   24 type  1   force =    -0.00000048    0.00017308   -0.00018138
     atom   25 type  1   force =    -0.00083890   -0.00151313    0.00176733
     atom   26 type  1   force =     0.00031887    0.00394039    0.00176951
     atom   27 type  1   force =    -0.00033416   -0.00321882    0.00172903
     atom   28 type  1   force =     0.00083890    0.00151313    0.00176733
     atom   29 type  1   force =    -0.00031887   -0.00394039    0.00176951
     atom   30 type  1   force =     0.00033416    0.00321882    0.00172903
     atom   31 type  2   force =    -0.00132458    0.00317238   -0.00137984
     atom   32 type  2   force =     0.00087710    0.00196954   -0.00136954
     atom   33 type  2   force =     0.00139969    0.00022338   -0.00134010
     atom   34 type  2   force =     0.00132458   -0.00317238   -0.00137984
     atom   35 type  2   force =    -0.00087710   -0.00196954   -0.00136954
     atom   36 type  2   force =    -0.00139969   -0.00022338   -0.00134010

     Total force =     0.019011     Total SCF correction =     0.000832

     number of scf cycles    =  21
     number of bfgs steps    =  20

     energy   old            =    -351.2776838132 Ry
     energy   new            =    -351.2782049032 Ry

     CASE: energy  _new < energy  _old

     new trust radius        =       0.0156834987 bohr
     new conv_thr            =       0.0000004797 Ry


ATOMIC_POSITIONS (angstrom)
C        1.231076740   0.000797178  -0.093670944
C        0.000653789   0.710312003  -0.115823819
C        0.000942646   2.130210436  -0.174805655
C        1.229600777   2.840185261  -0.233747742
C        1.229604124   4.261224882  -0.233752637
C        0.000948507   4.971200401  -0.174811421
C        0.000647753   6.391098322  -0.115827949
C        1.231071675   7.100613670  -0.093673493
C        3.688928325   0.000794641  -0.093673493
C        2.459995179   0.711915415  -0.131776298
C        2.460004341   2.130354021  -0.221143607
C        3.690395876   2.840183429  -0.233752637
C        3.690399223   4.261223050  -0.233747742
C        2.459995659   4.971054290  -0.221143607
C        2.460004821   6.389492896  -0.131776298
C        3.688923260   7.100611133  -0.093670944
C        6.149994973   0.000070022  -0.090872280
C        4.919352247   0.710309989  -0.115827949
C        4.919051493   2.130207910  -0.174811421
C        6.150004680   2.840112554  -0.173009861
C        6.149995320   4.261295757  -0.173009861
C        4.919057354   4.971197875  -0.174805655
C        4.919346211   6.391096308  -0.115823819
C        6.150005027   7.101338289  -0.090872280
C        3.158374936   2.339549080   3.304828381
C        1.761559507   2.339063941   3.304694901
C        1.065547785   3.550903224   3.304677334
C        1.761625064   4.761859231   3.304828381
C        3.158440493   4.762344370   3.304694901
C        3.854452215   3.550505087   3.304677334
H        3.704234937   1.397076156   3.312647487
H        1.215674824   1.397004417   3.312633651
H       -0.022017144   3.550657731   3.313433953
H        1.215765063   5.704332155   3.312647487
H        3.704325176   5.704403894   3.312633651
H        4.942017144   3.550750580   3.313433953



     Writing output data file batch_graph+benzene.save/
     NEW-OLD atomic charge density approx. for the potential

     negative rho (up, down):  2.140E-04 0.000E+00

     total cpu time spent up to now is     1100.4 secs

     Self-consistent Calculation

     iteration #  1     ecut=    32.00 Ry     beta= 0.50
     Davidson diagonalization with overlap
     ethr =  1.00E-06,  avg # of iterations =  4.0

     negative rho (up, down):  2.129E-04 0.000E+00

     total cpu time spent up to now is     1152.8 secs

     total energy              =    -351.27844653 Ry
     Harris-Foulkes estimate   =    -351.27867379 Ry
     estimated scf accuracy    <       0.00054455 Ry

     iteration #  2     ecut=    32.00 Ry     beta= 0.50
     Davidson diagonalization with overlap
     ethr =  4.32E-07,  avg # of iterations =  2.0

     negative rho (up, down):  2.134E-04 0.000E+00

     total cpu time spent up to now is     1186.5 secs

     total energy              =    -351.27853162 Ry
     Harris-Foulkes estimate   =    -351.27855476 Ry
     estimated scf accuracy    <       0.00008158 Ry

     iteration #  3     ecut=    32.00 Ry     beta= 0.50
     Davidson diagonalization with overlap
     ethr =  6.47E-08,  avg # of iterations =  2.0

     negative rho (up, down):  2.148E-04 0.000E+00

     total cpu time spent up to now is     1219.0 secs

     total energy              =    -351.27854594 Ry
     Harris-Foulkes estimate   =    -351.27854666 Ry
     estimated scf accuracy    <       0.00001494 Ry

     iteration #  4     ecut=    32.00 Ry     beta= 0.50
     Davidson diagonalization with overlap
     ethr =  1.19E-08,  avg # of iterations =  2.0

     negative rho (up, down):  2.152E-04 0.000E+00

     total cpu time spent up to now is     1250.1 secs

     total energy              =    -351.27854798 Ry
     Harris-Foulkes estimate   =    -351.27854762 Ry
     estimated scf accuracy    <       0.00000106 Ry

     iteration #  5     ecut=    32.00 Ry     beta= 0.50
     Davidson diagonalization with overlap
     ethr =  8.45E-10,  avg # of iterations =  2.2

     negative rho (up, down):  2.120E-04 0.000E+00

     total cpu time spent up to now is     1280.9 secs

     End of self-consistent calculation

          k = 0.0000 0.0000 0.0000 ( 31971 PWs)   bands (ev):

   -21.8530 -20.3984 -20.3971 -19.9192 -19.9188 -19.5466 -18.5130 -18.5123
   -18.5085 -18.5064 -16.8216 -16.8053 -16.6793 -15.5803 -15.0119 -15.0097
   -15.0028 -15.0027 -13.2725 -13.2332 -13.0307 -13.0284 -13.0283 -13.0281
   -12.8874 -12.8871 -11.3311 -10.2213 -10.2190  -9.9684  -9.8751  -9.8379
    -9.6512  -9.3227  -9.0409  -9.0399  -9.0345  -9.0341  -8.8865  -8.8538
    -8.8518  -8.7252  -8.5949  -8.2333  -8.1887  -7.6903  -7.6469  -7.5353
    -7.5272  -7.2464  -6.8995  -6.7713  -6.0981  -6.0902  -6.0831  -6.0742
    -5.5704  -5.5657  -4.7390  -4.5923  -4.5495  -2.3185  -2.3140  -2.3060
    -2.3026  -0.6343  -0.1212   0.3631   0.4317   0.6771   1.4074   1.4173
     1.4217   1.4640   1.4879   1.8875

          k = 0.0000 0.0722 0.0000 ( 31929 PWs)   bands (ev):

   -21.7613 -21.0308 -19.8297 -19.8297 -19.5950 -19.5443 -19.1203 -19.1186
   -17.7455 -17.7442 -17.5330 -16.8209 -16.8052 -15.8794 -15.8780 -14.5937
   -14.4761 -14.4758 -13.6281 -13.6275 -13.2709 -13.2332 -12.3687 -12.3683
   -12.3050 -12.3038 -11.5054 -11.3261 -10.6796 -10.6774 -10.0770 -10.0767
    -9.8261  -9.6463  -9.3234  -8.9781  -8.7959  -8.7043  -8.5930  -8.5444
    -8.5419  -8.3738  -8.3732  -8.3005  -8.0994  -7.6091  -7.5406  -7.3450
    -7.1959  -6.8956  -6.8902  -6.8217  -6.7241  -6.7088  -5.9344  -5.7608
    -5.2821  -5.2774  -5.2048  -4.5955  -4.5887  -3.3233  -3.3205  -1.3307
    -1.3299  -0.0354   0.0510   0.3641   0.3838   0.5378   0.6019   0.8067
     1.2474   1.6985   1.8420   2.2066

          k = 0.0000-0.1443 0.0000 ( 31940 PWs)   bands (ev):

   -21.4960 -21.4772 -19.5732 -19.5714 -19.5706 -19.5531 -19.5257 -18.6294
   -18.6239 -16.8556 -16.8553 -16.8493 -16.8459 -16.8118 -16.8014 -14.1012
   -14.0981 -14.0887 -14.0863 -13.2705 -13.2342 -13.1049 -13.1028 -11.4955
   -11.4924 -11.4870 -11.4866 -11.3223 -11.2781 -11.2712 -11.2705 -11.2659
    -9.6416  -9.5127  -9.4948  -9.3240  -8.7257  -8.5906  -8.5355  -8.5219
    -8.2375  -8.2355  -8.2304  -8.2289  -7.4539  -7.2613  -7.2515  -7.2376
    -7.0927  -6.9335  -6.9151  -6.8911  -6.7734  -6.2594  -6.2461  -6.2262
    -6.2102  -4.6746  -4.6456  -4.3291  -4.3291  -4.2848  -4.2689  -0.4106
    -0.4040  -0.3945  -0.3893   0.2481   0.3629   0.4556   0.8267   1.1717
     1.2387   1.4802   1.5099   2.0003

          k = 0.0833 0.0000 0.0000 ( 31951 PWs)   bands (ev):

   -21.7306 -20.7584 -20.2786 -20.2773 -19.5463 -19.3264 -19.3262 -18.8578
   -17.5026 -17.5015 -16.8211 -16.8166 -16.5750 -16.2182 -15.7389 -15.4794
   -14.8293 -14.5688 -14.5682 -14.0815 -13.2419 -13.2338 -12.3529 -12.1079
   -11.6619 -11.4377 -11.4369 -11.2901 -10.1297  -9.9213  -9.8999  -9.7654
[...]

     CASE: energy  _new < energy  _old

     new trust radius        =       0.0005171254 bohr
     new conv_thr            =       0.0000000100 Ry


ATOMIC_POSITIONS (angstrom)
C        1.230300564   0.000359490  -0.178458130
C        0.000343421   0.710438834  -0.176012963
C        0.000721846   2.131123479  -0.191904129
C        1.230345591   2.840715505  -0.213172862
C        1.230352804   4.260692450  -0.213172931
C        0.000727930   4.970285129  -0.191903929
C        0.000344344   6.390970614  -0.176012856
C        1.230299652   7.101050378  -0.178458202
C        3.689700348   0.000357933  -0.178458202
C        2.459995367   0.711143032  -0.190867241
C        2.460001947   2.131043503  -0.212381923
C        3.689647196   2.840715861  -0.213172931
C        3.689654409   4.260692806  -0.213172862
C        2.459998053   4.970364808  -0.212381923
C        2.460004633   6.390265279  -0.190867241
C        3.689699436   7.101048821  -0.178458130
C        6.149996401   0.000303171  -0.167868316
C        4.919655656   0.710437697  -0.176012856
C        4.919272070   2.131123182  -0.191903929
C        6.150000610   2.840546301  -0.189867991
C        6.149999390   4.260862010  -0.189867991
C        4.919278154   4.970284832  -0.191904129
C        4.919656579   6.390969477  -0.176012963
C        6.150003599   7.101105140  -0.167868316
C        3.157472454   2.341672735   3.385491133
C        1.762528787   2.341655140   3.385496705
C        1.066842792   3.550720670   3.385824365
C        1.762527546   4.759735576   3.385491133
C        3.157471213   4.759753171   3.385496705
C        3.853157208   3.550687641   3.385824365
H        3.701965836   1.401159017   3.373996373
H        1.218032775   1.401172858   3.374001934
H       -0.018961938   3.550707838   3.375270963
H        1.218034164   5.700249294   3.373996373
H        3.701967225   5.700235453   3.374001934
H        4.938961938   3.550700473   3.375270963



     Writing output data file batch_graph+benzene.save/
     NEW-OLD atomic charge density approx. for the potential

     negative rho (up, down):  1.976E-04 0.000E+00

     total cpu time spent up to now is     8682.8 secs

     Self-consistent Calculation

     iteration #  1     ecut=    32.00 Ry     beta= 0.50
     Davidson diagonalization with overlap
     ethr =  1.00E-06,  avg # of iterations =  2.0

     Threshold (ethr) on eigenvalues was too large:
     Diagonalizing with lowered threshold

     Davidson diagonalization with overlap
     ethr =  3.63E-10,  avg # of iterations =  3.0

     negative rho (up, down):  1.977E-04 0.000E+00

     total cpu time spent up to now is     8747.4 secs

     total energy              =    -351.28094459 Ry
     Harris-Foulkes estimate   =    -351.28094491 Ry
     estimated scf accuracy    <       0.00000072 Ry

     iteration #  2     ecut=    32.00 Ry     beta= 0.50
     Davidson diagonalization with overlap
     ethr =  5.73E-10,  avg # of iterations =  2.0

     negative rho (up, down):  1.977E-04 0.000E+00

     total cpu time spent up to now is     8781.5 secs

     total energy              =    -351.28094470 Ry
     Harris-Foulkes estimate   =    -351.28094474 Ry
     estimated scf accuracy    <       0.00000011 Ry

     iteration #  3     ecut=    32.00 Ry     beta= 0.50
     Davidson diagonalization with overlap
     ethr =  8.69E-11,  avg # of iterations =  2.0

     negative rho (up, down):  1.977E-04 0.000E+00

     total cpu time spent up to now is     8814.6 secs

     total energy              =    -351.28094472 Ry
     Harris-Foulkes estimate   =    -351.28094472 Ry
     estimated scf accuracy    <       0.00000002 Ry

     iteration #  4     ecut=    32.00 Ry     beta= 0.50
     Davidson diagonalization with overlap
     ethr =  1.50E-11,  avg # of iterations =  2.0

     negative rho (up, down):  1.977E-04 0.000E+00

     total cpu time spent up to now is     8846.4 secs

     End of self-consistent calculation

          k = 0.0000 0.0000 0.0000 ( 31971 PWs)   bands (ev):

   -21.8603 -20.4045 -20.4042 -19.9266 -19.9263 -19.5737 -18.5192 -18.5181
   -18.5154 -18.5146 -16.8352 -16.8241 -16.6796 -15.5881 -15.0127 -15.0110
   -15.0109 -15.0093 -13.2833 -13.2461 -13.0367 -13.0363 -13.0355 -13.0349
   -12.8966 -12.8959 -11.3512 -10.2236 -10.2216  -9.9420  -9.8716  -9.8683
    -9.6533  -9.3372  -9.0417  -9.0404  -9.0337  -9.0334  -8.8967  -8.8573
    -8.8559  -8.7290  -8.6096  -8.2322  -8.1978  -7.6897  -7.6451  -7.5440
    -7.5432  -7.2796  -6.9032  -6.7704  -6.0991  -6.0939  -6.0868  -6.0795
    -5.5738  -5.5690  -4.7494  -4.6079  -4.5573  -2.3149  -2.3126  -2.3069
    -2.3046  -0.6233  -0.1504   0.3652   0.4436   0.6682   1.4149   1.4192
     1.4304   1.4656   1.4685   1.8624

          k = 0.0000 0.0722 0.0000 ( 31929 PWs)   bands (ev):

   -21.7686 -21.0379 -19.8372 -19.8371 -19.6022 -19.5702 -19.1274 -19.1261
   -17.7514 -17.7506 -17.5366 -16.8347 -16.8240 -15.8833 -15.8828 -14.5978
   -14.4823 -14.4819 -13.6356 -13.6346 -13.2819 -13.2463 -12.3751 -12.3747
   -12.3113 -12.3101 -11.5044 -11.3466 -10.6831 -10.6814 -10.0782 -10.0782
    -9.8303  -9.6486  -9.3378  -8.9761  -8.8060  -8.7159  -8.6078  -8.5463
    -8.5447  -8.3740  -8.3726  -8.2972  -8.1080  -7.6081  -7.5460  -7.3589
    -7.2127  -6.8997  -6.8980  -6.8147  -6.7338  -6.7198  -5.9337  -5.7649
    -5.2837  -5.2819  -5.2099  -4.6100  -4.6046  -3.3245  -3.3230  -1.3276
    -1.3270  -0.0221   0.0222   0.3795   0.3839   0.5462   0.5984   0.7974
     1.2275   1.6747   1.8326   2.2120

          k = 0.0000-0.1443 0.0000 ( 31940 PWs)   bands (ev):

   -21.5007 -21.4869 -19.5894 -19.5771 -19.5748 -19.5620 -19.5474 -18.6349
   -18.6287 -16.8606 -16.8603 -16.8562 -16.8516 -16.8251 -16.8193 -14.1061
   -14.1041 -14.0966 -14.0963 -13.2814 -13.2472 -13.1055 -13.1054 -11.5004
   -11.4977 -11.4922 -11.4920 -11.3430 -11.2786 -11.2751 -11.2742 -11.2722
    -9.6441  -9.5125  -9.4992  -9.3384  -8.7353  -8.6057  -8.5434  -8.5331
    -8.2369  -8.2368  -8.2322  -8.2293  -7.4584  -7.2619  -7.2533  -7.2417
    -7.1201  -6.9268  -6.9096  -6.8949  -6.7774  -6.2651  -6.2532  -6.2319
    -6.2217  -4.6792  -4.6574  -4.3350  -4.3328  -4.2898  -4.2788  -0.4033
    -0.3958  -0.3917  -0.3867   0.2176   0.3691   0.4608   0.8095   1.1686
     1.2292   1.4892   1.5239   1.9881

          k = 0.0833 0.0000 0.0000 ( 31951 PWs)   bands (ev):

   -21.7380 -20.7659 -20.2847 -20.2844 -19.5730 -19.3336 -19.3328 -18.8656
   -17.5088 -17.5087 -16.8355 -16.8346 -16.5753 -16.2261 -15.7395 -15.4871
   -14.8367 -14.5758 -14.5756 -14.0829 -13.2528 -13.2473 -12.3607 -12.1173
   -11.6641 -11.4435 -11.4433 -11.3111 -10.1348  -9.8990  -9.8971  -9.7916
    -9.7064  -9.4050  -9.3344  -9.1124  -9.1120  -8.9368  -8.9366  -8.7637
    -8.7235  -8.6992  -8.6111  -8.0914  -8.0598  -7.9986  -7.9984  -7.6188
    -7.3353  -6.9771  -6.9390  -6.7722  -6.7623  -6.4297  -6.0470  -5.8292
    -5.1837  -5.1708  -4.6784  -4.6140  -4.4748  -3.6082  -3.3331  -1.3568
    -1.0214  -0.6618  -0.0077   0.0223   0.0511   0.4480   0.5024   0.8418
     1.3838   1.6316   2.0431   2.1837

          k = 0.0833 0.0722 0.0000 ( 31951 PWs)   bands (ev):

   -21.6464 -20.9169 -20.6753 -19.9557 -19.5732 -19.4796 -18.7780 -18.5467
   -18.0886 -17.4263 -16.8422 -16.8349 -16.8175 -16.5602 -16.1900 -15.0928
   -14.6030 -14.5069 -13.9906 -13.8676 -13.2516 -13.2482 -12.1748 -12.1626
   -11.9424 -11.7307 -11.4684 -11.3068 -10.6806 -10.2958  -9.7033  -9.6894
    -9.6755  -9.6412  -9.3351  -9.3125  -9.1077  -8.8477  -8.7452  -8.7257
    -8.7024  -8.5935  -8.5175  -8.4313  -8.1130  -7.7081  -7.4770  -7.3326
    -7.2926  -7.1138  -6.7784  -6.7668  -6.3869  -6.3419  -6.0811  -6.0017
    -5.6875  -5.0754  -4.7071  -4.6150  -4.5208  -3.9710  -3.7240  -0.9954
    -0.6747  -0.5109  -0.0196   0.1712   0.4003   0.4644   0.7639   0.9687
     1.3586   1.4944   1.7340   1.8850

          k = 0.0833-0.1443 0.0000 ( 31876 PWs)   bands (ev):

   -21.3789 -21.3651 -20.4111 -20.3976 -19.5722 -18.5238 -18.5204 -18.5137
   -18.5097 -17.6130 -17.6070 -16.8356 -16.8350 -16.2635 -16.2574 -15.2039
   -15.2030 -13.2512 -13.2494 -13.0401 -13.0350 -13.0347 -13.0321 -12.9617
   -12.9574 -11.3454 -11.3388 -11.3016 -10.6566 -10.6534  -9.8759  -9.8702
    -9.6982  -9.3673  -9.3568  -9.3356  -9.0436  -9.0391  -9.0345  -9.0327
    -8.7371  -8.7336  -8.2156  -8.2136  -7.5452  -7.5385  -7.3121  -7.2245
    -7.2142  -6.7887  -6.7679  -6.5633  -6.5576  -6.0976  -6.0923  -6.0885
    -6.0814  -5.0764  -5.0636  -4.6351  -4.6041  -4.0752  -4.0539  -0.8521
    -0.8505   0.3559   0.3945   0.4027   0.5192   0.5509   1.0014   1.3423
     1.3958   1.4151   1.4174   1.4459

          k =-0.1667 0.0000 0.0000 ( 31854 PWs)   bands (ev):

   -21.3766 -21.3674 -19.9312 -19.9302 -19.9223 -19.9220 -19.5694 -17.6104
   -17.6098 -16.8479 -16.8347 -16.6790 -16.6782 -16.2658 -16.2572 -15.5901
   -15.5897 -15.2061 -15.1969 -13.2494 -13.2225 -12.9613 -12.9612 -11.3401
   -11.3400 -11.2649 -10.6620 -10.6505 -10.2226 -10.2206 -10.2205 -10.2184
    -9.7720  -9.3683  -9.3572  -9.3316  -8.8961  -8.8955  -8.8630  -8.8617
    -8.8574  -8.8556  -8.8310  -8.7181  -7.7236  -7.6519  -7.6518  -7.6398
    -7.2397  -7.2282  -7.2160  -6.7687  -6.6554  -6.5604  -6.5533  -5.0915
    -5.0484  -4.7632  -4.7312  -4.6004  -4.5260  -4.0870  -4.0473  -0.8489
    -0.8487  -0.6332  -0.6142   0.4000   0.4658   0.4946   0.5111   0.5650
     0.7494   1.3414   1.3720   2.1139

          k =-0.1667 0.0722 0.0000 ( 31908 PWs)   bands (ev):

   -21.2854 -21.2762 -20.5594 -20.5503 -19.5707 -19.1329 -19.1234 -17.5283
   -17.5276 -17.1018 -17.0938 -16.9337 -16.9317 -16.8440 -16.8331 -15.1891
   -15.1888 -14.2593 -14.2507 -13.5128 -13.5122 -13.2497 -13.2213 -11.4681
   -11.4619 -11.2613 -10.7721 -10.7717 -10.5587 -10.5472  -9.7687  -9.6919
    -9.6818  -9.3326  -9.2625  -9.2513  -9.2059  -9.2019  -9.1653  -9.1650
    -8.8305  -8.7343  -8.3858  -8.3836  -7.8541  -7.8529  -7.5902  -7.5812
    -7.3187  -6.7846  -6.7342  -6.7218  -6.6442  -6.5939  -6.5908  -5.0477
    -5.0023  -4.8077  -4.7910  -4.7101  -4.6490  -4.5334  -4.4956  -0.4759
    -0.4565  -0.2005  -0.1934   0.2804   0.3300   0.4846   0.5340   0.5472
     0.8695   1.4587   1.4892   1.6005

          k =-0.1667-0.1443 0.0000 ( 31784 PWs)   bands (ev):

   -21.0176 -21.0115 -21.0069 -20.9947 -19.5704 -18.1812 -18.1755 -18.1727
   -18.1660 -17.2981 -17.2922 -17.2846 -17.2800 -16.8457 -16.8346 -14.4055
   -14.3996 -14.3975 -14.3923 -13.2508 -13.2205 -12.8693 -12.8692 -12.8617
   -12.8607 -11.2570 -10.2476 -10.2390 -10.2386 -10.2258  -9.8821  -9.8779
    -9.8663  -9.8629  -9.7645  -9.3331  -8.9707  -8.9502  -8.9325  -8.9297
    -8.7830  -8.7070  -8.3306  -8.3290  -8.3261  -8.3212  -7.3093  -7.0081
    -7.0081  -7.0047  -7.0016  -6.7904  -6.6496  -5.7020  -5.6978  -5.6850
    -5.6751  -4.9630  -4.8928  -4.8924  -4.8753  -4.5950  -4.5496  -0.1096
    -0.0795  -0.0785  -0.0619   0.4469   0.5084   0.6475   1.0140   1.1321
     1.1405   1.1529   1.1909   1.3125

          k =-0.0833 0.0722 0.0000 ( 31951 PWs)   bands (ev):

   -21.6464 -20.9169 -20.6753 -19.9557 -19.5732 -19.4796 -18.7780 -18.5467
   -18.0886 -17.4263 -16.8423 -16.8348 -16.8176 -16.5602 -16.1900 -15.0928
   -14.6030 -14.5069 -13.9906 -13.8676 -13.2517 -13.2482 -12.1748 -12.1626
   -11.9424 -11.7307 -11.4684 -11.3068 -10.6806 -10.2958  -9.7033  -9.6894
    -9.6755  -9.6412  -9.3351  -9.3125  -9.1077  -8.8477  -8.7453  -8.7256
    -8.7024  -8.5935  -8.5175  -8.4313  -8.1131  -7.7081  -7.4770  -7.3326
    -7.2926  -7.1138  -6.7784  -6.7667  -6.3869  -6.3419  -6.0811  -6.0018
    -5.6875  -5.0754  -4.7072  -4.6148  -4.5209  -3.9710  -3.7240  -0.9954
    -0.6747  -0.5109  -0.0196   0.1712   0.4005   0.4642   0.7639   0.9687
     1.3586   1.4944   1.7340   1.8850

     the Fermi energy is    -2.3097 ev

!    total energy              =    -351.28094471 Ry
     Harris-Foulkes estimate   =    -351.28094472 Ry
     estimated scf accuracy    <          1.5E-09 Ry

     The total energy is the sum of the following terms:

     one-electron contribution =   -4560.26961019 Ry
     hartree contribution      =    2300.21344324 Ry
     xc contribution           =    -112.23686283 Ry
     ewald contribution        =    2021.01490537 Ry
     smearing contrib. (-TS)   =      -0.00282030 Ry

     convergence has been achieved in   4 iterations

     Forces acting on atoms (cartesian axes, Ry/au):

     atom    1 type  1   force =    -0.00000738    0.00001966   -0.00001196
     atom    2 type  1   force =    -0.00000455    0.00000915   -0.00001549
     atom    3 type  1   force =     0.00001251    0.00000822   -0.00001986
     atom    4 type  1   force =     0.00001994   -0.00001944   -0.00002148
     atom    5 type  1   force =     0.00000237    0.00001760   -0.00002132
     atom    6 type  1   force =     0.00000306   -0.00000984   -0.00001983
     atom    7 type  1   force =     0.00000378   -0.00001233   -0.00001566
     atom    8 type  1   force =     0.00000490   -0.00002281   -0.00001200
     atom    9 type  1   force =    -0.00000490    0.00002281   -0.00001200
     atom   10 type  1   force =     0.00001345   -0.00004613    0.00009184
     atom   11 type  1   force =    -0.00001370   -0.00000787   -0.00006768
     atom   12 type  1   force =    -0.00000237   -0.00001760   -0.00002132
     atom   13 type  1   force =    -0.00001994    0.00001944   -0.00002148
     atom   14 type  1   force =     0.00001370    0.00000787   -0.00006768
     atom   15 type  1   force =    -0.00001345    0.00004613    0.00009184
     atom   16 type  1   force =     0.00000738   -0.00001966   -0.00001196
     atom   17 type  1   force =     0.00001019    0.00003271    0.00008209
     atom   18 type  1   force =    -0.00000378    0.00001233   -0.00001566
     atom   19 type  1   force =    -0.00000306    0.00000984   -0.00001983
     atom   20 type  1   force =    -0.00000865    0.00000824    0.00000799
     atom   21 type  1   force =     0.00000865   -0.00000824    0.00000799
     atom   22 type  1   force =    -0.00001251   -0.00000822   -0.00001986
     atom   23 type  1   force =     0.00000455   -0.00000915   -0.00001549
     atom   24 type  1   force =    -0.00001019   -0.00003271    0.00008209
     atom   25 type  1   force =     0.00004653   -0.00006577   -0.00000535
     atom   26 type  1   force =    -0.00005856    0.00003248   -0.00000771
     atom   27 type  1   force =     0.00001508   -0.00006016   -0.00001292
     atom   28 type  1   force =    -0.00004653    0.00006577   -0.00000535
     atom   29 type  1   force =     0.00005856   -0.00003248   -0.00000771
     atom   30 type  1   force =    -0.00001508    0.00006016   -0.00001292
     atom   31 type  2   force =     0.00001147   -0.00002358    0.00001665
     atom   32 type  2   force =    -0.00002348   -0.00005031    0.00001678
     atom   33 type  2   force =    -0.00005227    0.00000298    0.00001591
     atom   34 type  2   force =    -0.00001147    0.00002358    0.00001665
     atom   35 type  2   force =     0.00002348    0.00005031    0.00001678
     atom   36 type  2   force =     0.00005227   -0.00000298    0.00001591

     Total force =     0.000320     Total SCF correction =     0.000065
     SCF correction compared to forces is large: reduce conv_thr to get better values

     bfgs converged in  58 scf cycles and  56 bfgs steps
     (criteria: energy <  1.0E-05 Ry, force <  1.0E-04 Ry/Bohr)

     End of BFGS Geometry Optimization

     Final energy   =    -351.2809447118 Ry
Begin final coordinates

ATOMIC_POSITIONS (angstrom)
C        1.230300564   0.000359490  -0.178458130
C        0.000343421   0.710438834  -0.176012963
C        0.000721846   2.131123479  -0.191904129
C        1.230345591   2.840715505  -0.213172862
C        1.230352804   4.260692450  -0.213172931
C        0.000727930   4.970285129  -0.191903929
C        0.000344344   6.390970614  -0.176012856
C        1.230299652   7.101050378  -0.178458202
C        3.689700348   0.000357933  -0.178458202
C        2.459995367   0.711143032  -0.190867241
C        2.460001947   2.131043503  -0.212381923
C        3.689647196   2.840715861  -0.213172931
C        3.689654409   4.260692806  -0.213172862
C        2.459998053   4.970364808  -0.212381923
C        2.460004633   6.390265279  -0.190867241
C        3.689699436   7.101048821  -0.178458130
C        6.149996401   0.000303171  -0.167868316
C        4.919655656   0.710437697  -0.176012856
C        4.919272070   2.131123182  -0.191903929
C        6.150000610   2.840546301  -0.189867991
C        6.149999390   4.260862010  -0.189867991
C        4.919278154   4.970284832  -0.191904129
C        4.919656579   6.390969477  -0.176012963
C        6.150003599   7.101105140  -0.167868316
C        3.157472454   2.341672735   3.385491133
C        1.762528787   2.341655140   3.385496705
C        1.066842792   3.550720670   3.385824365
C        1.762527546   4.759735576   3.385491133
C        3.157471213   4.759753171   3.385496705
C        3.853157208   3.550687641   3.385824365
H        3.701965836   1.401159017   3.373996373
H        1.218032775   1.401172858   3.374001934
H       -0.018961938   3.550707838   3.375270963
H        1.218034164   5.700249294   3.373996373
H        3.701967225   5.700235453   3.374001934
H        4.938961938   3.550700473   3.375270963
End final coordinates



     Writing output data file batch_graph+benzene.save/

     init_run     :     20.94s CPU     21.25s WALL (       1 calls)
     electrons    :   8087.68s CPU   8202.24s WALL (      41 calls)
     update_pot   :    140.61s CPU    143.96s WALL (      40 calls)
     forces       :    454.76s CPU    459.10s WALL (      41 calls)

     Called by init_run:
     wfcinit      :     17.25s CPU     17.41s WALL (       1 calls)
     potinit      :      1.62s CPU      1.72s WALL (       1 calls)
     hinit0       :      1.19s CPU      1.20s WALL (       1 calls)

     Called by electrons:
     c_bands      :   6734.31s CPU   6806.38s WALL (     243 calls)
     sum_band     :    882.33s CPU    900.07s WALL (     243 calls)
     v_of_rho     :    395.07s CPU    414.33s WALL (     257 calls)
     newd         :    147.08s CPU    155.53s WALL (     257 calls)
     mix_rho      :      7.83s CPU      8.06s WALL (     243 calls)

     Called by c_bands:
     init_us_2    :     24.97s CPU     25.12s WALL (    5280 calls)
     cegterg      :   6667.26s CPU   6737.26s WALL (    2430 calls)

     Called by sum_band:
     sum_band:bec :      0.95s CPU      0.96s WALL (    2430 calls)
     addusdens    :    112.27s CPU    120.61s WALL (     243 calls)

     Called by *egterg:
     h_psi        :   3445.01s CPU   3497.57s WALL (    8463 calls)
     s_psi        :   1023.18s CPU   1025.89s WALL (    8463 calls)
     g_psi        :      4.92s CPU      4.95s WALL (    6023 calls)
     cdiaghg      :    199.82s CPU    200.35s WALL (    7783 calls)

     Called by h_psi:
     h_psi:pot    :   3437.55s CPU   3483.69s WALL (    8463 calls)
     h_psi:calbec :   1193.56s CPU   1197.23s WALL (    8463 calls)
     vloc_psi     :   1219.21s CPU   1259.21s WALL (    8463 calls)
     add_vuspsi   :   1024.72s CPU   1027.20s WALL (    8463 calls)

     General routines
     calbec       :   1963.59s CPU   1969.52s WALL (   12533 calls)
     fft          :    260.74s CPU    270.63s WALL (   16258 calls)
     ffts         :      1.27s CPU      1.32s WALL (     500 calls)
     fftw         :   1375.71s CPU   1421.06s WALL ( 1111484 calls)
     interpolate  :      5.38s CPU      5.56s WALL (     257 calls)

     Parallel routines
     fft_scatt_xy :    147.80s CPU    153.22s WALL ( 1128242 calls)
     fft_scatt_yz :    240.36s CPU    259.20s WALL ( 1128242 calls)

     PWSCF        :      2h25m CPU      2h27m WALL


   This run was terminated on:  16: 2:36   9Jan2021            

=------------------------------------------------------------------------------=
   JOB DONE.
=------------------------------------------------------------------------------=
