
     Program PWSCF v.6.4.1 starts on  2Dec2020 at 11:41: 5 

     This program is part of the open-source Quantum ESPRESSO suite
     for quantum simulation of materials; please cite
         "P. Giannozzi et al., J. Phys.:Condens. Matter 21 395502 (2009);
         "P. Giannozzi et al., J. Phys.:Condens. Matter 29 465901 (2017);
          URL http://www.quantum-espresso.org", 
     in publications or presentations arising from this work. More details at
     http://www.quantum-espresso.org/quote

     Parallel version (MPI), running on     8 processors

     MPI processes distributed on     1 nodes
     R & G space division:  proc/nbgrp/npool/nimage =       8
     Waiting for input...
     Reading input from standard input

     Current dimensions of program PWSCF are:
     Max number of different atomic species (ntypx) = 10
     Max number of k-points (npk) =  40000
     Max angular momentum in pseudopotentials (lmaxx) =  3

     IMPORTANT: XC functional enforced from input :
     Exchange-correlation      = VDW-DF ( 1  4  4  0 1 0)
     Any further DFT definition will be discarded
     Please, verify this is what you really want

               file C.pbe-rrkjus.UPF: wavefunction(s)  2S 2P renormalized

     Subspace diagonalization in iterative solution of the eigenvalue problem:
     a serial algorithm will be used


     Parallelization info
     --------------------
     sticks:   dense  smooth     PW     G-vecs:    dense   smooth      PW
     Min         714     285     79               126154    31889    4649
     Max         715     286     80               126163    31900    4658
     Sum        5713    2283    637              1009261   255153   37237



     bravais-lattice index     =            0
     lattice parameter (alat)  =       4.6487  a.u.
     unit-cell volume          =   10440.3175 (a.u.)^3
     number of atoms/cell      =           36
     number of atomic types    =            2
     number of electrons       =       126.00
     number of Kohn-Sham states=           76
     kinetic-energy cutoff     =      32.0000  Ry
     charge density cutoff     =     320.0000  Ry
     convergence threshold     =      1.0E-06
     mixing beta               =       0.5000
     number of iterations used =            8  plain     mixing
     Exchange-correlation      = VDW-DF ( 1  4  4  0 1 0)
     nstep                     =          200


     celldm(1)=   4.648726  celldm(2)=   0.000000  celldm(3)=   0.000000
     celldm(4)=   0.000000  celldm(5)=   0.000000  celldm(6)=   0.000000

     crystal axes: (cart. coord. in units of alat)
               a(1) = (   3.000000   0.000000   0.000000 )  
               a(2) = (   0.000000   3.464102   0.000000 )  
               a(3) = (   0.000000   0.000000  10.000000 )  

     reciprocal axes: (cart. coord. in units 2 pi/alat)
               b(1) = (  0.333333  0.000000  0.000000 )  
               b(2) = (  0.000000  0.288675  0.000000 )  
               b(3) = (  0.000000  0.000000  0.100000 )  


     PseudoPot. # 1 for C  read from file:
     ../../pseudopotentials/C.pbe-rrkjus.UPF
     MD5 check sum: 00fb224312de0c5b6853bd333518df6f
     Pseudo is Ultrasoft, Zval =  4.0
     Generated by new atomic code, or converted to UPF format
     Using radial grid of  627 points,  4 beta functions with: 
                l(1) =   0
                l(2) =   0
                l(3) =   1
                l(4) =   1
     Q(r) pseudized with 0 coefficients 


     PseudoPot. # 2 for H  read from file:
     ../../pseudopotentials/H.pbe-rrkjus_psl.1.0.0.UPF
     MD5 check sum: 3f4114867bd07edc7f1424d066fc1888
     Pseudo is Ultrasoft, Zval =  1.0
     Generated using "atomic" code by A. Dal Corso v.6.3MaX
     Using radial grid of  929 points,  2 beta functions with: 
                l(1) =   0
                l(2) =   0
     Q(r) pseudized with 0 coefficients 


     vdW kernel table read from file vdW_kernel_table
     MD5 check sum: 48e77a2e26edf626eeb0eaa751ad5cac

     atomic species   valence    mass     pseudopotential
        C              4.00    12.01070     C ( 1.00)
        H              1.00     1.00790     H ( 1.00)

     No symmetry found



   Cartesian axes

     site n.     atom                  positions (alat units)
         1           C   tau(   1) = (   0.5000000   0.0000000   0.0000000  )
         2           C   tau(   2) = (   0.0000000   0.2886752   0.0000000  )
         3           C   tau(   3) = (   0.0000000   0.8660255   0.0000000  )
         4           C   tau(   4) = (   0.5000000   1.1547006   0.0000000  )
         5           C   tau(   5) = (   0.5000000   1.7320509   0.0000000  )
         6           C   tau(   6) = (   0.0000000   2.0207261   0.0000000  )
         7           C   tau(   7) = (   0.0000000   2.5980764   0.0000000  )
         8           C   tau(   8) = (   0.5000000   2.8867516   0.0000000  )
         9           C   tau(   9) = (   1.5000001   0.0000000   0.0000000  )
        10           C   tau(  10) = (   1.0000001   0.2886752   0.0000000  )
        11           C   tau(  11) = (   1.0000001   0.8660255   0.0000000  )
        12           C   tau(  12) = (   1.5000001   1.1547006   0.0000000  )
        13           C   tau(  13) = (   1.5000001   1.7320509   0.0000000  )
        14           C   tau(  14) = (   1.0000001   2.0207261   0.0000000  )
        15           C   tau(  15) = (   1.0000001   2.5980764   0.0000000  )
        16           C   tau(  16) = (   1.5000001   2.8867516   0.0000000  )
        17           C   tau(  17) = (   2.5000002   0.0000000   0.0000000  )
        18           C   tau(  18) = (   2.0000002   0.2886752   0.0000000  )
        19           C   tau(  19) = (   2.0000002   0.8660255   0.0000000  )
        20           C   tau(  20) = (   2.5000002   1.1547006   0.0000000  )
        21           C   tau(  21) = (   2.5000002   1.7320509   0.0000000  )
        22           C   tau(  22) = (   2.0000002   2.0207261   0.0000000  )
        23           C   tau(  23) = (   2.0000002   2.5980764   0.0000000  )
        24           C   tau(  24) = (   2.5000002   2.8867516   0.0000000  )
        25           C   tau(  25) = (   1.7835084   0.6636498   1.2195123  )
        26           C   tau(  26) = (   1.2165702   0.6636927   1.2195123  )
        27           C   tau(  27) = (   0.9330598   1.1547471   1.2195123  )
        28           C   tau(  28) = (   1.2164918   1.6457514   1.2195123  )
        29           C   tau(  29) = (   1.7834300   1.6457086   1.2195123  )
        30           C   tau(  30) = (   2.0669404   1.1546541   1.2195123  )
        31           H   tau(  31) = (   2.0052050   0.2796601   1.2195123  )
        32           H   tau(  32) = (   0.9948515   0.2797872   1.2195123  )
        33           H   tau(  33) = (   0.4897286   1.1546857   1.2195123  )
        34           H   tau(  34) = (   0.9947952   2.0297411   1.2195123  )
        35           H   tau(  35) = (   2.0051488   2.0296140   1.2195123  )
        36           H   tau(  36) = (   2.5102717   1.1547155   1.2195123  )

     number of k points=    10  gaussian smearing, width (Ry)=  0.0200
                       cart. coord. in units 2pi/alat
        k(    1) = (   0.0000000   0.0000000   0.0000000), wk =   0.1250000
        k(    2) = (   0.0000000   0.0721688   0.0000000), wk =   0.2500000
        k(    3) = (   0.0000000  -0.1443376   0.0000000), wk =   0.1250000
        k(    4) = (   0.0833333   0.0000000   0.0000000), wk =   0.2500000
        k(    5) = (   0.0833333   0.0721688   0.0000000), wk =   0.2500000
        k(    6) = (   0.0833333  -0.1443376   0.0000000), wk =   0.2500000
        k(    7) = (  -0.1666667   0.0000000   0.0000000), wk =   0.1250000
        k(    8) = (  -0.1666667   0.0721688   0.0000000), wk =   0.2500000
        k(    9) = (  -0.1666667  -0.1443376   0.0000000), wk =   0.1250000
        k(   10) = (  -0.0833333   0.0721688   0.0000000), wk =   0.2500000

     Dense  grid:  1009261 G-vectors     FFT dimensions: (  80,  96, 270)

     Smooth grid:   255153 G-vectors     FFT dimensions: (  54,  60, 180)

     Estimated max dynamical RAM per process >     428.17 MB

     Estimated total dynamical RAM >       3.35 GB

     Initial potential from superposition of free atoms

     starting charge  125.99836, renormalised to  126.00000

     negative rho (up, down):  2.435E-04 0.000E+00


     %%%%%%%%%%%%%%%%%%%%%%%%%%%%%%%%%%%%%%%%%%%%%%%%%%%%%%%%%%%%%%%%%%%%%%%%
     %                                                                      %
     % You are using vdW-DF, which was implemented by the Thonhauser group. %
     % Please cite the following two papers that made this development      %
     % possible and the two reviews that describe the various versions:     %
     %                                                                      %
     %   T. Thonhauser et al., PRL 115, 136402 (2015).                      %
     %   T. Thonhauser et al., PRB 76, 125112 (2007).                       %
     %   K. Berland et al., Rep. Prog. Phys. 78, 066501 (2015).             %
     %   D.C. Langreth et al., J. Phys.: Condens. Matter 21, 084203 (2009). %
     %                                                                      %
     %                                                                      %
     % If you are calculating the stress with vdW-DF, please also cite:     %
     %                                                                      %
     %   R. Sabatini et al., J. Phys.: Condens. Matter 24, 424209 (2012).   %
     %                                                                      %
     %%%%%%%%%%%%%%%%%%%%%%%%%%%%%%%%%%%%%%%%%%%%%%%%%%%%%%%%%%%%%%%%%%%%%%%%


     Starting wfcs are  126 randomized atomic wfcs

     total cpu time spent up to now is       20.6 secs

     Self-consistent Calculation

     iteration #  1     ecut=    32.00 Ry     beta= 0.50
     Davidson diagonalization with overlap
     ethr =  1.00E-02,  avg # of iterations =  2.0

     negative rho (up, down):  2.063E-04 0.000E+00

     total cpu time spent up to now is       57.8 secs

     total energy              =    -350.86908263 Ry
     Harris-Foulkes estimate   =    -352.96596715 Ry
     estimated scf accuracy    <       4.24138981 Ry

     iteration #  2     ecut=    32.00 Ry     beta= 0.50
     Davidson diagonalization with overlap
     ethr =  3.37E-03,  avg # of iterations =  6.5

     negative rho (up, down):  4.959E-04 0.000E+00

     total cpu time spent up to now is       90.5 secs

     total energy              =    -351.20582286 Ry
     Harris-Foulkes estimate   =    -351.36045673 Ry
     estimated scf accuracy    <       0.39471135 Ry

     iteration #  3     ecut=    32.00 Ry     beta= 0.50
     Davidson diagonalization with overlap
     ethr =  3.13E-04,  avg # of iterations =  9.9

     negative rho (up, down):  4.251E-04 0.000E+00

     total cpu time spent up to now is      126.6 secs

     total energy              =    -351.24425618 Ry
     Harris-Foulkes estimate   =    -351.26068568 Ry
     estimated scf accuracy    <       0.05195290 Ry

     iteration #  4     ecut=    32.00 Ry     beta= 0.50
     Davidson diagonalization with overlap
     ethr =  4.12E-05,  avg # of iterations =  6.5

     negative rho (up, down):  2.788E-04 0.000E+00

     total cpu time spent up to now is      161.7 secs

     total energy              =    -351.25206686 Ry
     Harris-Foulkes estimate   =    -351.25727120 Ry
     estimated scf accuracy    <       0.01603196 Ry

     iteration #  5     ecut=    32.00 Ry     beta= 0.50
     Davidson diagonalization with overlap
     ethr =  1.27E-05,  avg # of iterations =  4.1

     negative rho (up, down):  2.907E-04 0.000E+00

     total cpu time spent up to now is      192.4 secs

     total energy              =    -351.25531717 Ry
     Harris-Foulkes estimate   =    -351.25565563 Ry
     estimated scf accuracy    <       0.00259494 Ry

     iteration #  6     ecut=    32.00 Ry     beta= 0.50
     Davidson diagonalization with overlap
     ethr =  2.06E-06,  avg # of iterations =  6.6

     negative rho (up, down):  2.361E-04 0.000E+00

     total cpu time spent up to now is      225.0 secs

     total energy              =    -351.25569810 Ry
     Harris-Foulkes estimate   =    -351.25577174 Ry
     estimated scf accuracy    <       0.00026291 Ry

     iteration #  7     ecut=    32.00 Ry     beta= 0.50
     Davidson diagonalization with overlap
     ethr =  2.09E-07,  avg # of iterations =  2.2

     negative rho (up, down):  2.177E-04 0.000E+00

     total cpu time spent up to now is      253.3 secs

     total energy              =    -351.25574819 Ry
     Harris-Foulkes estimate   =    -351.25574698 Ry
     estimated scf accuracy    <       0.00002146 Ry

     iteration #  8     ecut=    32.00 Ry     beta= 0.50
     Davidson diagonalization with overlap
     ethr =  1.70E-08,  avg # of iterations =  2.2

     negative rho (up, down):  2.102E-04 0.000E+00

     total cpu time spent up to now is      285.8 secs

     total energy              =    -351.25575228 Ry
     Harris-Foulkes estimate   =    -351.25575337 Ry
     estimated scf accuracy    <       0.00000369 Ry

     iteration #  9     ecut=    32.00 Ry     beta= 0.50
     Davidson diagonalization with overlap
     ethr =  2.93E-09,  avg # of iterations =  2.1

     negative rho (up, down):  2.071E-04 0.000E+00

     total cpu time spent up to now is      315.1 secs

     End of self-consistent calculation

          k = 0.0000 0.0000 0.0000 ( 31971 PWs)   bands (ev):

   -21.9151 -20.4628 -20.4565 -19.9878 -19.9788 -19.5540 -18.5724 -18.5721
   -18.5657 -18.5630 -16.8257 -16.8103 -16.7225 -15.6386 -15.0607 -15.0606
   -15.0600 -15.0593 -13.2753 -13.2367 -13.0847 -13.0825 -13.0812 -13.0749
   -12.9423 -12.9422 -11.3514 -10.2690 -10.2674 -10.0114  -9.9208  -9.9202
    -9.6278  -9.3243  -9.0925  -9.0917  -9.0771  -9.0755  -8.9418  -8.9059
    -8.9052  -8.7541  -8.6130  -8.3956  -8.2138  -7.8271  -7.7012  -7.5889
    -7.5868  -7.0319  -6.8832  -6.7739  -6.2158  -6.2065  -6.1041  -6.0633
    -5.6171  -5.6161  -4.7951  -4.4757  -4.4599  -2.3687  -2.3678  -2.3638
    -2.3631  -0.6655  -0.0592   0.4197   0.5015   0.6973   1.3572   1.3617
     1.3774   1.4181   1.5845   1.9761

          k = 0.0000 0.0722 0.0000 ( 31929 PWs)   bands (ev):

   -21.8234 -21.0927 -19.9005 -19.8893 -19.6664 -19.5441 -19.1793 -19.1721
   -17.8037 -17.8032 -17.5889 -16.8157 -16.8103 -15.9323 -15.9318 -14.6487
   -14.5312 -14.5309 -13.6850 -13.6848 -13.2657 -13.2255 -12.4234 -12.4232
   -12.3581 -12.3578 -11.5536 -11.3436 -10.7292 -10.7282 -10.1262 -10.1259
    -9.9118  -9.6212  -9.3249  -9.1113  -8.8512  -8.6561  -8.6144  -8.5925
    -8.5876  -8.4213  -8.4192  -8.3431  -8.1521  -7.7887  -7.6120  -7.4289
    -7.0979  -6.9416  -6.9250  -6.8665  -6.6604  -6.6489  -5.9817  -5.8071
    -5.4053  -5.3679  -5.2609  -4.4731  -4.4653  -3.3765  -3.3605  -1.3920
    -1.3798  -0.0430   0.0824   0.3513   0.3943   0.5920   0.5943   0.8272
     1.3169   1.7797   1.8667   2.2048

          k = 0.0000-0.1443 0.0000 ( 31940 PWs)   bands (ev):

   -21.5555 -21.5417 -19.6737 -19.6311 -19.6296 -19.6136 -19.5036 -18.6876
   -18.6786 -16.9398 -16.9209 -16.9056 -16.9011 -16.7922 -16.7843 -14.1580
   -14.1571 -14.1435 -14.1414 -13.2763 -13.2264 -13.1544 -13.1448 -11.5473
   -11.5471 -11.5390 -11.5389 -11.3488 -11.3275 -11.3197 -11.3190 -11.3141
    -9.6187  -9.6156  -9.5991  -9.3247  -8.6800  -8.6078  -8.5943  -8.5685
    -8.2864  -8.2838  -8.2765  -8.2754  -7.6390  -7.3469  -7.3353  -7.3213
    -6.9782  -6.9752  -6.9568  -6.7868  -6.7160  -6.3476  -6.3119  -6.2921
    -6.2057  -4.7535  -4.6720  -4.3973  -4.3803  -4.2216  -4.1454  -0.4903
    -0.4563  -0.4455  -0.4305   0.3281   0.4482   0.5172   0.8765   1.1964
     1.2562   1.4339   1.4819   2.0592

          k = 0.0833 0.0000 0.0000 ( 31951 PWs)   bands (ev):

   -21.7928 -20.8208 -20.3434 -20.3367 -19.5731 -19.3856 -19.3703 -18.9163
   -17.5628 -17.5601 -16.8239 -16.8207 -16.6214 -16.2744 -15.7877 -15.5378
   -14.8878 -14.6254 -14.6243 -14.1306 -13.2365 -13.2259 -12.4098 -12.1647
   -11.7106 -11.4926 -11.4904 -11.3050 -10.1842  -9.9461  -9.9459  -9.8768
    -9.6844  -9.4501  -9.3212  -9.1597  -9.1582  -8.9833  -8.9832  -8.8784
    -8.7450  -8.7333  -8.5968  -8.2276  -8.0950  -8.0438  -8.0418  -7.6668
    -7.2904  -7.0746  -6.8487  -6.7526  -6.7157  -6.4535  -6.0894  -5.8773
    -5.2760  -5.2466  -4.6844  -4.5045  -4.4201  -3.6421  -3.3811  -1.4150
    -1.0817  -0.7070  -0.0550  -0.0322   0.1523   0.5095   0.5759   0.8714
     1.4977   1.7429   2.1390   2.1711

          k = 0.0833 0.0722 0.0000 ( 31951 PWs)   bands (ev):

   -21.7012 -20.9717 -20.7303 -20.0125 -19.5866 -19.5037 -18.8291 -18.5982
   -18.1405 -17.4790 -16.8927 -16.8206 -16.8078 -16.6039 -16.2387 -15.1415
   -14.6514 -14.5575 -14.0408 -13.9171 -13.2349 -13.2263 -12.2220 -12.2110
   -11.9895 -11.7797 -11.5176 -11.2990 -10.7278 -10.3432  -9.7760  -9.7301
    -9.6961  -9.6703  -9.3580  -9.3217  -9.1533  -8.9889  -8.8249  -8.7723
    -8.6592  -8.6367  -8.5095  -8.4771  -8.1594  -7.8201  -7.5246  -7.3410
    -7.3366  -6.9766  -6.7605  -6.7415  -6.4305  -6.3887  -6.1501  -6.0477
    -5.7525  -5.1624  -4.7596  -4.4991  -4.4501  -3.9786  -3.7591  -1.0517
    -0.7385  -0.5571  -0.0748   0.2645   0.4359   0.5362   0.7436   1.0003
     1.4497   1.5980   1.6734   1.9229

          k = 0.0833-0.1443 0.0000 ( 31876 PWs)   bands (ev):

   -21.4337 -21.4199 -20.4657 -20.4536 -19.5595 -18.5783 -18.5724 -18.5652
   -18.5578 -17.6665 -17.6589 -16.8243 -16.8149 -16.3155 -16.3041 -15.2527
   -15.2506 -13.2444 -13.2359 -13.0848 -13.0843 -13.0782 -13.0757 -13.0119
   -13.0028 -11.3977 -11.3813 -11.2917 -10.7071 -10.6991  -9.9240  -9.9159
    -9.6738  -9.4886  -9.4553  -9.3216  -9.0946  -9.0882  -9.0798  -9.0725
    -8.7712  -8.6906  -8.3098  -8.2626  -7.5924  -7.5848  -7.2714  -7.2609
    -7.1192  -6.7774  -6.7686  -6.6100  -6.5986  -6.2185  -6.1529  -6.1388
    -6.0863  -5.2155  -5.1259  -4.5469  -4.4168  -4.1289  -4.0590  -0.9098
    -0.8906   0.3611   0.3880   0.4666   0.5303   0.5742   1.0574   1.3513
     1.3623   1.3778   1.3940   1.4092

          k =-0.1667 0.0000 0.0000 ( 31854 PWs)   bands (ev):

   -21.4319 -21.4217 -19.9907 -19.9864 -19.9847 -19.9714 -19.5412 -17.6658
   -17.6601 -16.8441 -16.8251 -16.7254 -16.7215 -16.3177 -16.3010 -15.6383
   -15.6370 -15.2614 -15.2434 -13.2298 -13.2045 -13.0083 -13.0068 -11.3901
   -11.3895 -11.2535 -10.7090 -10.6968 -10.2735 -10.2714 -10.2655 -10.2647
    -9.7539  -9.4813  -9.4722  -9.3179  -8.9444  -8.9441  -8.9084  -8.9057
    -8.9044  -8.9009  -8.7771  -8.7148  -7.9428  -7.7186  -7.7090  -7.7038
    -7.2723  -7.2586  -6.9121  -6.7342  -6.6353  -6.6122  -6.5978  -5.2609
    -5.1038  -4.7934  -4.7783  -4.5573  -4.4048  -4.1185  -4.0735  -0.9247
    -0.8781  -0.6643  -0.6635   0.3662   0.4521   0.5462   0.5662   0.6209
     0.8611   1.3689   1.4109   2.1893

          k =-0.1667 0.0722 0.0000 ( 31908 PWs)   bands (ev):

   -21.3406 -21.3305 -20.6144 -20.6055 -19.5616 -19.1876 -19.1671 -17.5839
   -17.5781 -17.1566 -17.1482 -16.9955 -16.9829 -16.8182 -16.8074 -15.2376
   -15.2375 -14.3135 -14.2976 -13.5631 -13.5601 -13.2258 -13.2030 -11.5207
   -11.5076 -11.2479 -10.8210 -10.8203 -10.6056 -10.5935  -9.7562  -9.7383
    -9.7222  -9.3879  -9.3675  -9.3181  -9.2520  -9.2502  -9.2119  -9.2119
    -8.7953  -8.7842  -8.4444  -8.4215  -7.9012  -7.8974  -7.6346  -7.6257
    -7.1963  -6.8287  -6.7225  -6.7166  -6.6452  -6.6352  -6.5976  -5.2238
    -5.0630  -4.8865  -4.8623  -4.7710  -4.7110  -4.3472  -4.3395  -0.5188
    -0.5074  -0.2702  -0.2467   0.2205   0.2754   0.5679   0.5862   0.6631
     0.9780   1.4981   1.5251   1.6817

          k =-0.1667-0.1443 0.0000 ( 31784 PWs)   bands (ev):

   -21.0747 -21.0637 -21.0600 -21.0514 -19.5572 -18.2345 -18.2312 -18.2253
   -18.2122 -17.3515 -17.3491 -17.3424 -17.3261 -16.8239 -16.8137 -14.4546
   -14.4535 -14.4419 -14.4406 -13.2288 -13.2074 -12.9251 -12.9196 -12.9064
   -12.9026 -11.2423 -10.2995 -10.2899 -10.2808 -10.2669  -9.9316  -9.9286
    -9.9142  -9.9079  -9.7433  -9.3205  -9.1354  -9.1198  -9.0766  -8.9911
    -8.6821  -8.6117  -8.3749  -8.3742  -8.3740  -8.3654  -7.0945  -7.0560
    -7.0544  -7.0509  -7.0448  -6.7626  -6.6428  -5.8818  -5.7693  -5.7526
    -5.6795  -5.1462  -4.9573  -4.9401  -4.9205  -4.4120  -4.3463  -0.2016
    -0.1389  -0.1103  -0.1027   0.5150   0.5449   0.7672   1.0742   1.0863
     1.0981   1.1061   1.1636   1.4039

          k =-0.0833 0.0722 0.0000 ( 31951 PWs)   bands (ev):

   -21.7012 -20.9717 -20.7303 -20.0125 -19.5865 -19.5037 -18.8291 -18.5982
   -18.1405 -17.4790 -16.8930 -16.8195 -16.8086 -16.6039 -16.2387 -15.1415
   -14.6514 -14.5575 -14.0408 -13.9171 -13.2350 -13.2262 -12.2220 -12.2110
   -11.9895 -11.7797 -11.5176 -11.2990 -10.7278 -10.3432  -9.7760  -9.7301
    -9.6961  -9.6703  -9.3580  -9.3217  -9.1533  -8.9887  -8.8248  -8.7723
    -8.6598  -8.6367  -8.5090  -8.4771  -8.1594  -7.8201  -7.5246  -7.3410
    -7.3366  -6.9766  -6.7610  -6.7411  -6.4305  -6.3888  -6.1500  -6.0477
    -5.7524  -5.1624  -4.7600  -4.4987  -4.4501  -3.9787  -3.7591  -1.0517
    -0.7385  -0.5571  -0.0748   0.2644   0.4363   0.5356   0.7437   1.0003
     1.4497   1.5981   1.6734   1.9229

     the Fermi energy is    -2.3658 ev

!    total energy              =    -351.25575263 Ry
     Harris-Foulkes estimate   =    -351.25575290 Ry
     estimated scf accuracy    <       0.00000039 Ry

     The total energy is the sum of the following terms:

     one-electron contribution =   -4816.33796768 Ry
     hartree contribution      =    2428.14116044 Ry
     xc contribution           =    -112.31285352 Ry
     ewald contribution        =    2149.25672886 Ry
     smearing contrib. (-TS)   =      -0.00282074 Ry

     convergence has been achieved in   9 iterations

     Forces acting on atoms (cartesian axes, Ry/au):

     atom    1 type  1   force =     0.00059030    0.00110862    0.00002193
     atom    2 type  1   force =     0.00000076   -0.00070044    0.00189567
     atom    3 type  1   force =     0.00000041    0.00172389   -0.00027384
     atom    4 type  1   force =     0.00019582   -0.00067037   -0.00497030
     atom    5 type  1   force =     0.00089849   -0.00020391   -0.00175577
     atom    6 type  1   force =     0.00000096   -0.00086033    0.00110120
     atom    7 type  1   force =     0.00000040    0.00026067    0.00082844
     atom    8 type  1   force =    -0.00011580   -0.00021513    0.00064436
     atom    9 type  1   force =     0.00000060    0.00148887   -0.00197169
     atom   10 type  1   force =     0.00070110    0.00033257   -0.00516727
     atom   11 type  1   force =     0.00124568    0.00076916   -0.00864573
     atom   12 type  1   force =     0.00000083   -0.00043992   -0.00987165
     atom   13 type  1   force =     0.00000092   -0.00031868   -0.00885790
     atom   14 type  1   force =     0.00086000   -0.00097337   -0.00514767
     atom   15 type  1   force =     0.00033798   -0.00091069    0.00021095
     atom   16 type  1   force =     0.00000007    0.00042609    0.00152273
     atom   17 type  1   force =    -0.00059089    0.00110879    0.00002142
     atom   18 type  1   force =    -0.00070175    0.00033357   -0.00516762
     atom   19 type  1   force =    -0.00124565    0.00076893   -0.00864856
     atom   20 type  1   force =    -0.00019692   -0.00067057   -0.00496944
     atom   21 type  1   force =    -0.00089953   -0.00020390   -0.00175539
     atom   22 type  1   force =    -0.00086043   -0.00097309   -0.00514625
     atom   23 type  1   force =    -0.00033791   -0.00091169    0.00021122
     atom   24 type  1   force =     0.00011537   -0.00021567    0.00064434
     atom   25 type  1   force =    -0.00081868   -0.00590985    0.01030908
     atom   26 type  1   force =     0.00069989   -0.00561912    0.01030756
     atom   27 type  1   force =    -0.00354479    0.00353353    0.01035965
     atom   28 type  1   force =    -0.00579316    0.00208893    0.01030487
     atom   29 type  1   force =     0.00591154    0.00179871    0.01030311
     atom   30 type  1   force =     0.00354498    0.00404242    0.01035931
     atom   31 type  2   force =    -0.00276995    0.00478243    0.00050849
     atom   32 type  2   force =     0.00267949    0.00461472    0.00050779
     atom   33 type  2   force =     0.00679303    0.00001095    0.00063853
     atom   34 type  2   force =     0.00276760   -0.00478183    0.00050514
     atom   35 type  2   force =    -0.00267738   -0.00461431    0.00050463
     atom   36 type  2   force =    -0.00679338   -0.00000002    0.00063866

     Total force =     0.039663     Total SCF correction =     0.001410

     BFGS Geometry Optimization

     number of scf cycles    =   1
     number of bfgs steps    =   0

     energy   new            =    -351.2557526289 Ry

     new trust radius        =       0.0120139786 bohr
     new conv_thr            =       0.0000010000 Ry


ATOMIC_POSITIONS (angstrom)
C        1.230312375   0.000586654   0.000011607
C        0.000000403   0.709770175   0.001003147
C        0.000000215   2.131334739  -0.000144912
C        1.230103625   2.840208581  -0.002630168
C        1.230475459   4.260737082  -0.000929111
C        0.000000510   4.970530552   0.000582730
C        0.000000213   6.391405420   0.000438394
C        1.229938720   7.101294471   0.000340978
C        3.690000316   0.000787877  -0.001043374
C        2.460371009   0.710316820  -0.002734403
C        2.460659185   2.130829514  -0.004575125
C        3.690000438   2.840330530  -0.005223853
C        3.690000487   4.260676349  -0.004687397
C        2.460455091   4.970470735  -0.002724031
C        2.460178849   6.390785563   0.000111627
C        3.690000037   7.101633790   0.000805793
C        6.149687316   0.000586744   0.000011333
C        4.919628651   0.710317348  -0.002734584
C        4.919340832   2.130829396  -0.004576621
C        6.149895795   2.840208473  -0.002629717
C        6.149523988   4.260737088  -0.000928914
C        4.919544681   4.970470883  -0.002723277
C        4.919821187   6.390785037   0.000111771
C        6.150061053   7.101294185   0.000340969
C        4.386997181   1.629451065   3.005455331
C        2.993132885   1.629710384   3.005454526
C        2.293451163   2.842547534   3.005482093
C        2.989503985   4.049653641   3.005453103
C        4.390365732   4.049394592   3.005452171
C        5.086548936   2.842588138   3.005481913
H        4.931338103   0.690494578   3.000269080
H        2.448752313   0.690718556   3.000268711
H        1.208326889   2.840532518   3.000337896
H        2.448660653   4.990632387   3.000267311
H        4.931248801   4.990408310   3.000267038
H        6.171672924   2.840599917   3.000337964



     Writing output data file batch_graph+benzene.save/
     NEW-OLD atomic charge density approx. for the potential

     negative rho (up, down):  2.070E-04 0.000E+00

     total cpu time spent up to now is      329.8 secs

     Self-consistent Calculation

     iteration #  1     ecut=    32.00 Ry     beta= 0.50
     Davidson diagonalization with overlap
     ethr =  1.00E-06,  avg # of iterations =  3.0

     negative rho (up, down):  2.071E-04 0.000E+00

     total cpu time spent up to now is      371.7 secs

     total energy              =    -351.25692657 Ry
     Harris-Foulkes estimate   =    -351.25706940 Ry
     estimated scf accuracy    <       0.00032565 Ry

     iteration #  2     ecut=    32.00 Ry     beta= 0.50
     Davidson diagonalization with overlap
     ethr =  2.58E-07,  avg # of iterations =  2.0

     negative rho (up, down):  2.073E-04 0.000E+00

     total cpu time spent up to now is      400.8 secs

     total energy              =    -351.25697213 Ry
     Harris-Foulkes estimate   =    -351.25697986 Ry
     estimated scf accuracy    <       0.00003487 Ry

     iteration #  3     ecut=    32.00 Ry     beta= 0.50
     Davidson diagonalization with overlap
     ethr =  2.77E-08,  avg # of iterations =  2.0

     negative rho (up, down):  2.077E-04 0.000E+00

     total cpu time spent up to now is      430.4 secs

     total energy              =    -351.25697676 Ry
     Harris-Foulkes estimate   =    -351.25697805 Ry
     estimated scf accuracy    <       0.00000750 Ry

     iteration #  4     ecut=    32.00 Ry     beta= 0.50
     Davidson diagonalization with overlap
     ethr =  5.95E-09,  avg # of iterations =  2.0

     negative rho (up, down):  2.077E-04 0.000E+00

     total cpu time spent up to now is      460.0 secs

     total energy              =    -351.25697801 Ry
     Harris-Foulkes estimate   =    -351.25697842 Ry
     estimated scf accuracy    <       0.00000196 Ry

     iteration #  5     ecut=    32.00 Ry     beta= 0.50
     Davidson diagonalization with overlap
     ethr =  1.55E-09,  avg # of iterations =  2.4

     negative rho (up, down):  2.072E-04 0.000E+00

     total cpu time spent up to now is      488.2 secs

     End of self-consistent calculation

          k = 0.0000 0.0000 0.0000 ( 31971 PWs)   bands (ev):

   -21.9189 -20.4658 -20.4609 -19.9915 -19.9821 -19.5274 -18.5766 -18.5746
   -18.5701 -18.5681 -16.8200 -16.8069 -16.7278 -15.6392 -15.0677 -15.0647
   -15.0634 -15.0615 -13.2850 -13.2489 -13.0902 -13.0881 -13.0842 -13.0818
   -12.9473 -12.9463 -11.3622 -10.2784 -10.2743 -10.0138  -9.9223  -9.9208
    -9.6791  -9.3051  -9.0935  -9.0930  -9.0819  -9.0811  -8.9490  -8.9058
    -8.9051  -8.7654  -8.6271  -8.3927  -8.2195  -7.8253  -7.7039  -7.5964
    -7.5957  -7.0249  -6.8891  -6.7899  -6.2152  -6.2075  -6.1101  -6.0699
    -5.6267  -5.6151  -4.7970  -4.4723  -4.4584  -2.3749  -2.3723  -2.3669
    -2.3657  -0.6647  -0.0494   0.4112   0.4891   0.6965   1.3505   1.3563
     1.3742   1.4116   1.5868   1.9765

          k = 0.0000 0.0722 0.0000 ( 31929 PWs)   bands (ev):

   -21.8272 -21.0965 -19.9037 -19.8926 -19.6665 -19.5216 -19.1826 -19.1768
   -17.8083 -17.8065 -17.5930 -16.8098 -16.8069 -15.9363 -15.9358 -14.6504
   -14.5359 -14.5355 -13.6904 -13.6892 -13.2760 -13.2388 -12.4277 -12.4265
   -12.3642 -12.3626 -11.5552 -11.3545 -10.7369 -10.7337 -10.1296 -10.1291
    -9.9140  -9.6726  -9.3058  -9.1134  -8.8583  -8.6679  -8.6266  -8.5933
    -8.5920  -8.4227  -8.4225  -8.3444  -8.1599  -7.7822  -7.6143  -7.4298
    -7.0952  -6.9504  -6.9303  -6.8721  -6.6744  -6.6532  -5.9802  -5.8174
    -5.4056  -5.3694  -5.2665  -4.4700  -4.4619  -3.3807  -3.3654  -1.3957
    -1.3842  -0.0424   0.0901   0.3473   0.3880   0.5791   0.5847   0.8261
     1.3219   1.7867   1.8662   2.2057

          k = 0.0000-0.1443 0.0000 ( 31940 PWs)   bands (ev):

   -21.5584 -21.5464 -19.6666 -19.6346 -19.6320 -19.6178 -19.4888 -18.6907
   -18.6834 -16.9394 -16.9233 -16.9081 -16.9076 -16.7907 -16.7816 -14.1615
   -14.1603 -14.1487 -14.1485 -13.2854 -13.2396 -13.1571 -13.1472 -11.5532
   -11.5509 -11.5461 -11.5447 -11.3564 -11.3299 -11.3247 -11.3231 -11.3205
    -9.6673  -9.6197  -9.6019  -9.3056  -8.6928  -8.6214  -8.5989  -8.5793
    -8.2887  -8.2880  -8.2780  -8.2769  -7.6275  -7.3492  -7.3368  -7.3242
    -6.9789  -6.9771  -6.9536  -6.7918  -6.7336  -6.3489  -6.3193  -6.3039
    -6.2133  -4.7453  -4.6660  -4.4004  -4.3861  -4.2268  -4.1503  -0.4935
    -0.4602  -0.4487  -0.4362   0.3304   0.4399   0.5030   0.8863   1.1949
     1.2597   1.4304   1.4809   2.0690

          k = 0.0833 0.0000 0.0000 ( 31951 PWs)   bands (ev):

   -21.7966 -20.8246 -20.3463 -20.3410 -19.5474 -19.3900 -19.3721 -18.9205
   -17.5663 -17.5644 -16.8202 -16.8150 -16.6271 -16.2783 -15.7937 -15.5383
   -14.8882 -14.6306 -14.6295 -14.1372 -13.2467 -13.2392 -12.4118 -12.1710
   -11.7181 -11.4966 -11.4956 -11.3164 -10.1848  -9.9478  -9.9465  -9.8791
    -9.7342  -9.4572  -9.3021  -9.1628  -9.1621  -8.9864  -8.9862  -8.8834
    -8.7543  -8.7446  -8.6044  -8.2267  -8.0999  -8.0511  -8.0504  -7.6661
    -7.2827  -7.0782  -6.8487  -6.7609  -6.7329  -6.4576  -6.0997  -5.8756
    -5.2760  -5.2483  -4.6833  -4.5016  -4.4222  -3.6453  -3.3885  -1.4152
    -1.0882  -0.7063  -0.0593  -0.0370   0.1592   0.4987   0.5610   0.8707
     1.4996   1.7458   2.1385   2.1686

          k = 0.0833 0.0722 0.0000 ( 31951 PWs)   bands (ev):

   -21.7050 -20.9755 -20.7341 -20.0160 -19.5722 -19.4946 -18.8332 -18.6022
   -18.1445 -17.4831 -16.8941 -16.8160 -16.8054 -16.6084 -16.2424 -15.1469
   -14.6574 -14.5594 -14.0429 -13.9223 -13.2453 -13.2394 -12.2281 -12.2149
   -11.9959 -11.7823 -11.5192 -11.3104 -10.7330 -10.3479  -9.7782  -9.7377
    -9.7264  -9.6872  -9.3650  -9.3027  -9.1603  -8.9919  -8.8312  -8.7750
    -8.6697  -8.6446  -8.5165  -8.4782  -8.1627  -7.8193  -7.5257  -7.3451
    -7.3382  -6.9728  -6.7769  -6.7506  -6.4359  -6.3922  -6.1528  -6.0510
    -5.7553  -5.1655  -4.7565  -4.4960  -4.4502  -3.9853  -3.7624  -1.0581
    -0.7399  -0.5628  -0.0744   0.2698   0.4278   0.5247   0.7337   0.9990
     1.4538   1.5998   1.6703   1.9200

          k = 0.0833-0.1443 0.0000 ( 31876 PWs)   bands (ev):

   -21.4366 -21.4246 -20.4687 -20.4582 -19.5318 -18.5809 -18.5759 -18.5701
   -18.5628 -17.6695 -17.6638 -16.8208 -16.8092 -16.3187 -16.3076 -15.2579
   -15.2572 -13.2537 -13.2484 -13.0906 -13.0871 -13.0822 -13.0789 -13.0143
   -13.0068 -11.4015 -11.3889 -11.3032 -10.7097 -10.7026  -9.9285  -9.9229
    -9.7241  -9.4896  -9.4582  -9.3025  -9.0992  -9.0911  -9.0831  -9.0813
    -8.7811  -8.7026  -8.3112  -8.2660  -7.5964  -7.5854  -7.2755  -7.2604
    -7.1074  -6.7875  -6.7833  -6.6149  -6.6078  -6.2198  -6.1555  -6.1421
    -6.0933  -5.2142  -5.1308  -4.5416  -4.4159  -4.1325  -4.0634  -0.9157
    -0.8969   0.3575   0.3837   0.4669   0.5221   0.5659   1.0647   1.3485
     1.3595   1.3740   1.3876   1.4076

          k =-0.1667 0.0000 0.0000 ( 31854 PWs)   bands (ev):

   -21.4340 -21.4273 -19.9930 -19.9885 -19.9866 -19.9787 -19.5153 -17.6697
   -17.6641 -16.8408 -16.8190 -16.7286 -16.7251 -16.3215 -16.3089 -15.6443
   -15.6429 -15.2592 -15.2465 -13.2429 -13.2146 -13.0153 -13.0139 -11.3912
   -11.3907 -11.2654 -10.7162 -10.7029 -10.2734 -10.2723 -10.2710 -10.2678
    -9.8020  -9.4826  -9.4740  -9.2987  -8.9464  -8.9463  -8.9151  -8.9135
    -8.9097  -8.9081  -8.7889  -8.7274  -7.9358  -7.7205  -7.7120  -7.7095
    -7.2830  -7.2671  -6.9076  -6.7520  -6.6468  -6.6088  -6.5988  -5.2572
    -5.1064  -4.7940  -4.7761  -4.5534  -4.4071  -4.1253  -4.0821  -0.9227
    -0.8793  -0.6703  -0.6698   0.3592   0.4458   0.5371   0.5651   0.6098
     0.8669   1.3679   1.4103   2.1940

          k =-0.1667 0.0722 0.0000 ( 31908 PWs)   bands (ev):

   -21.3427 -21.3361 -20.6164 -20.6110 -19.5342 -19.1895 -19.1728 -17.5877
   -17.5821 -17.1588 -17.1539 -16.9981 -16.9864 -16.8163 -16.8024 -15.2431
   -15.2431 -14.3129 -14.3019 -13.5689 -13.5660 -13.2392 -13.2131 -11.5201
   -11.5118 -11.2600 -10.8232 -10.8224 -10.6129 -10.5997  -9.8008  -9.7461
    -9.7320  -9.3888  -9.3697  -9.3001  -9.2545  -9.2541  -9.2150  -9.2148
    -8.8061  -8.7927  -8.4492  -8.4247  -7.9042  -7.9041  -7.6430  -7.6317
    -7.1864  -6.8350  -6.7364  -6.7212  -6.6442  -6.6385  -6.6075  -5.2192
    -5.0649  -4.8836  -4.8638  -4.7747  -4.7156  -4.3507  -4.3422  -0.5245
    -0.5136  -0.2697  -0.2480   0.2147   0.2692   0.5543   0.5764   0.6620
     0.9831   1.4961   1.5242   1.6861

          k =-0.1667-0.1443 0.0000 ( 31784 PWs)   bands (ev):

   -21.0763 -21.0680 -21.0625 -21.0584 -19.5293 -18.2369 -18.2326 -18.2302
   -18.2194 -17.3540 -17.3526 -17.3462 -17.3315 -16.8213 -16.8080 -14.4590
   -14.4578 -14.4494 -14.4460 -13.2421 -13.2171 -12.9240 -12.9197 -12.9110
   -12.9072 -11.2544 -10.3048 -10.2935 -10.2904 -10.2761  -9.9343  -9.9329
    -9.9162  -9.9105  -9.7905  -9.3019  -9.1334  -9.1243  -9.0807  -8.9930
    -8.6920  -8.6239  -8.3833  -8.3791  -8.3762  -8.3712  -7.0824  -7.0597
    -7.0582  -7.0529  -7.0482  -6.7798  -6.6540  -5.8808  -5.7725  -5.7549
    -5.6878  -5.1416  -4.9591  -4.9432  -4.9231  -4.4104  -4.3495  -0.2051
    -0.1467  -0.1147  -0.1104   0.5008   0.5383   0.7653   1.0716   1.0856
     1.0932   1.1067   1.1644   1.4094

          k =-0.0833 0.0722 0.0000 ( 31951 PWs)   bands (ev):

   -21.7050 -20.9755 -20.7341 -20.0160 -19.5722 -19.4946 -18.8332 -18.6022
   -18.1445 -17.4831 -16.8940 -16.8162 -16.8052 -16.6083 -16.2424 -15.1469
   -14.6574 -14.5594 -14.0429 -13.9223 -13.2452 -13.2395 -12.2281 -12.2149
   -11.9959 -11.7823 -11.5192 -11.3104 -10.7330 -10.3479  -9.7782  -9.7377
    -9.7264  -9.6872  -9.3649  -9.3027  -9.1603  -8.9917  -8.8312  -8.7750
    -8.6701  -8.6446  -8.5163  -8.4782  -8.1627  -7.8193  -7.5257  -7.3451
    -7.3382  -6.9729  -6.7752  -6.7523  -6.4359  -6.3921  -6.1529  -6.0510
    -5.7553  -5.1655  -4.7564  -4.4961  -4.4502  -3.9853  -3.7624  -1.0580
    -0.7399  -0.5628  -0.0744   0.2698   0.4272   0.5256   0.7334   0.9990
     1.4538   1.5998   1.6703   1.9200

     the Fermi energy is    -2.3700 ev

!    total energy              =    -351.25697829 Ry
     Harris-Foulkes estimate   =    -351.25697847 Ry
     estimated scf accuracy    <       0.00000030 Ry

     The total energy is the sum of the following terms:

     one-electron contribution =   -4813.39579787 Ry
     hartree contribution      =    2426.66416739 Ry
     xc contribution           =    -112.31969009 Ry
     ewald contribution        =    2147.79716271 Ry
     smearing contrib. (-TS)   =      -0.00282043 Ry

     convergence has been achieved in   5 iterations

     Forces acting on atoms (cartesian axes, Ry/au):

     atom    1 type  1   force =     0.00013252   -0.00044601   -0.00003021
     atom    2 type  1   force =     0.00000017    0.00058157    0.00247823
     atom    3 type  1   force =     0.00000037    0.00067244   -0.00102167
     atom    4 type  1   force =     0.00069606    0.00052486   -0.00443614
     atom    5 type  1   force =    -0.00005822   -0.00063188   -0.00221260
     atom    6 type  1   force =    -0.00000017   -0.00123675    0.00161619
     atom    7 type  1   force =     0.00000069   -0.00007712    0.00157881
     atom    8 type  1   force =     0.00048396    0.00016607    0.00070455
     atom    9 type  1   force =    -0.00000032    0.00092828   -0.00328845
     atom   10 type  1   force =     0.00031891    0.00105900   -0.00469527
     atom   11 type  1   force =    -0.00010995   -0.00045222   -0.00804412
     atom   12 type  1   force =    -0.00000068    0.00048611   -0.00993235
     atom   13 type  1   force =    -0.00000065   -0.00084909   -0.00877880
     atom   14 type  1   force =     0.00033922   -0.00029684   -0.00462065
     atom   15 type  1   force =     0.00018024   -0.00001919   -0.00007547
     atom   16 type  1   force =     0.00000092    0.00047447    0.00211174
     atom   17 type  1   force =    -0.00013216   -0.00044631   -0.00003028
     atom   18 type  1   force =    -0.00031807    0.00105831   -0.00469644
     atom   19 type  1   force =     0.00011024   -0.00045153   -0.00804420
     atom   20 type  1   force =    -0.00069623    0.00052494   -0.00443703
     atom   21 type  1   force =     0.00005911   -0.00063173   -0.00221186
     atom   22 type  1   force =    -0.00033889   -0.00029758   -0.00462033
     atom   23 type  1   force =    -0.00018097   -0.00001792   -0.00007506
     atom   24 type  1   force =    -0.00048436    0.00016663    0.00070463
     atom   25 type  1   force =    -0.00189380    0.00607943    0.00954637
     atom   26 type  1   force =     0.00190373    0.00555554    0.00954673
     atom   27 type  1   force =     0.00629730   -0.00179503    0.00958648
     atom   28 type  1   force =     0.00520599   -0.00424985    0.00954162
     atom   29 type  1   force =    -0.00522136   -0.00371903    0.00954229
     atom   30 type  1   force =    -0.00629355   -0.00234745    0.00958683
     atom   31 type  2   force =     0.00054231   -0.00105325    0.00074433
     atom   32 type  2   force =    -0.00054296   -0.00101470    0.00074444
     atom   33 type  2   force =    -0.00005455    0.00001529    0.00086800
     atom   34 type  2   force =    -0.00068846    0.00086079    0.00074093
     atom   35 type  2   force =     0.00068877    0.00082278    0.00074090
     atom   36 type  2   force =     0.00005484    0.00005698    0.00086783

     Total force =     0.035874     Total SCF correction =     0.001404

     number of scf cycles    =   2
     number of bfgs steps    =   1

     energy   old            =    -351.2557526289 Ry
     energy   new            =    -351.2569782931 Ry

     CASE: energy  _new < energy  _old

     new trust radius        =       0.0132153764 bohr
     new conv_thr            =       0.0000009932 Ry


ATOMIC_POSITIONS (angstrom)
C        1.230573076   0.000852148   0.000009963
C        0.000000739   0.709699114   0.002502388
C        0.000000483   2.132188145  -0.000575537
C        1.230400425   2.840130334  -0.005896149
C        1.230788436   4.260457996  -0.002291021
C        0.000000813   4.969814005   0.001510595
C        0.000000585   6.391476797   0.001253491
C        1.230052048   7.101268600   0.000806132
C        3.690000436   0.001637017  -0.002831997
C        2.460732740   0.710781168  -0.006156690
C        2.461083675   2.130967665  -0.010361874
C        3.690000525   2.840324876  -0.012072255
C        3.690000617   4.260284830  -0.010789436
C        2.460882042   4.970015595  -0.006115016
C        2.460361774   6.390443110   0.000165175
C        3.690000361   7.101944149   0.002049128
C        6.149426515   0.000852204   0.000009476
C        4.919266952   0.710781844  -0.006157374
C        4.918916446   2.130967686  -0.010364439
C        6.149598533   2.840130177  -0.005895669
C        6.149210910   4.260458053  -0.002290449
C        4.919117680   4.970015606  -0.006113632
C        4.919638052   6.390442627   0.000165553
C        6.149947435   7.101268296   0.000806145
C        4.386084100   1.629229679   3.012340762
C        2.994005308   1.629427379   3.012339513
C        2.294173314   2.843273310   3.012399134
C        2.989043981   4.049054278   3.012335448
C        4.390864488   4.048859272   3.012334080
C        5.085828063   2.843323650   3.012398941
H        4.930490238   0.691920734   3.000696896
H        2.449566566   0.692095224   3.000696306
H        1.210817544   2.840541493   3.000853617
H        2.449460512   4.989144379   3.000692798
H        4.930482354   4.988969894   3.000692323
H        6.169182233   2.840618287   3.000853677



     Writing output data file batch_graph+benzene.save/
     NEW-OLD atomic charge density approx. for the potential

     negative rho (up, down):  2.076E-04 0.000E+00

     total cpu time spent up to now is      503.0 secs

     Self-consistent Calculation

     iteration #  1     ecut=    32.00 Ry     beta= 0.50
     Davidson diagonalization with overlap
     ethr =  1.00E-06,  avg # of iterations =  3.7

     negative rho (up, down):  2.076E-04 0.000E+00

     total cpu time spent up to now is      547.0 secs

     total energy              =    -351.25818699 Ry
     Harris-Foulkes estimate   =    -351.25834769 Ry
     estimated scf accuracy    <       0.00036005 Ry

     iteration #  2     ecut=    32.00 Ry     beta= 0.50
     Davidson diagonalization with overlap
     ethr =  2.86E-07,  avg # of iterations =  2.0

     negative rho (up, down):  2.079E-04 0.000E+00

     total cpu time spent up to now is      577.7 secs

     total energy              =    -351.25824958 Ry
     Harris-Foulkes estimate   =    -351.25825888 Ry
     estimated scf accuracy    <       0.00004081 Ry

     iteration #  3     ecut=    32.00 Ry     beta= 0.50
     Davidson diagonalization with overlap
     ethr =  3.24E-08,  avg # of iterations =  2.0

     negative rho (up, down):  2.084E-04 0.000E+00

     total cpu time spent up to now is      607.3 secs

     total energy              =    -351.25825601 Ry
     Harris-Foulkes estimate   =    -351.25825643 Ry
     estimated scf accuracy    <       0.00000819 Ry

     iteration #  4     ecut=    32.00 Ry     beta= 0.50
     Davidson diagonalization with overlap
     ethr =  6.50E-09,  avg # of iterations =  2.0

     negative rho (up, down):  2.089E-04 0.000E+00

     total cpu time spent up to now is      636.7 secs

     total energy              =    -351.25825718 Ry
     Harris-Foulkes estimate   =    -351.25825726 Ry
     estimated scf accuracy    <       0.00000138 Ry

     iteration #  5     ecut=    32.00 Ry     beta= 0.50
     Davidson diagonalization with overlap
     ethr =  1.09E-09,  avg # of iterations =  2.2

     negative rho (up, down):  2.077E-04 0.000E+00

     total cpu time spent up to now is      665.5 secs

     End of self-consistent calculation

          k = 0.0000 0.0000 0.0000 ( 31971 PWs)   bands (ev):

   -21.9221 -20.4686 -20.4642 -19.9946 -19.9851 -19.5320 -18.5796 -18.5777
   -18.5732 -18.5723 -16.8236 -16.8106 -16.7322 -15.6414 -15.0728 -15.0690
   -15.0669 -15.0624 -13.2892 -13.2528 -13.0946 -13.0915 -13.0868 -13.0867
   -12.9515 -12.9497 -11.3698 -10.2843 -10.2779 -10.0156  -9.9250  -9.9227
    -9.6863  -9.3061  -9.0953  -9.0938  -9.0863  -9.0863  -8.9534  -8.9091
    -8.9061  -8.7709  -8.6316  -8.3913  -8.2221  -7.8259  -7.7057  -7.6018
    -7.5999  -7.0350  -6.8881  -6.7922  -6.2152  -6.2082  -6.1133  -6.0771
    -5.6323  -5.6166  -4.7988  -4.4773  -4.4653  -2.3804  -2.3755  -2.3708
    -2.3669  -0.6667  -0.0456   0.4130   0.4920   0.6943   1.3463   1.3514
     1.3714   1.4059   1.5873   1.9785

          k = 0.0000 0.0722 0.0000 ( 31929 PWs)   bands (ev):

   -21.8303 -21.0996 -19.9067 -19.8956 -19.6690 -19.5265 -19.1857 -19.1809
   -17.8117 -17.8096 -17.5963 -16.8142 -16.8106 -15.9396 -15.9394 -14.6529
   -14.5400 -14.5385 -13.6948 -13.6921 -13.2806 -13.2432 -12.4312 -12.4295
   -12.3689 -12.3656 -11.5578 -11.3622 -10.7423 -10.7370 -10.1326 -10.1324
    -9.9155  -9.6799  -9.3068  -9.1150  -8.8627  -8.6722  -8.6308  -8.5961
    -8.5948  -8.4267  -8.4243  -8.3472  -8.1646  -7.7808  -7.6159  -7.4313
    -7.0996  -6.9554  -6.9319  -6.8722  -6.6767  -6.6639  -5.9818  -5.8230
    -5.4054  -5.3705  -5.2706  -4.4750  -4.4684  -3.3844  -3.3698  -1.3986
    -1.3879  -0.0428   0.0935   0.3479   0.3883   0.5767   0.5800   0.8238
     1.3245   1.7877   1.8648   2.2051

          k = 0.0000-0.1443 0.0000 ( 31940 PWs)   bands (ev):

   -21.5589 -21.5522 -19.6702 -19.6351 -19.6323 -19.6236 -19.4958 -18.6941
   -18.6866 -16.9409 -16.9253 -16.9117 -16.9115 -16.7952 -16.7872 -14.1629
   -14.1607 -14.1559 -14.1539 -13.2893 -13.2441 -13.1606 -13.1499 -11.5581
   -11.5533 -11.5510 -11.5483 -11.3618 -11.3315 -11.3290 -11.3280 -11.3250
    -9.6746  -9.6216  -9.6027  -9.3066  -8.6977  -8.6257  -8.5995  -8.5880
    -8.2923  -8.2888  -8.2826  -8.2794  -7.6259  -7.3500  -7.3390  -7.3245
    -6.9822  -6.9792  -6.9555  -6.8007  -6.7360  -6.3497  -6.3226  -6.3112
    -6.2194  -4.7429  -4.6644  -4.4037  -4.3902  -4.2349  -4.1609  -0.4959
    -0.4629  -0.4508  -0.4410   0.3324   0.4414   0.5047   0.8889   1.1929
     1.2600   1.4276   1.4768   2.0706

          k = 0.0833 0.0000 0.0000 ( 31951 PWs)   bands (ev):

   -21.7997 -20.8278 -20.3492 -20.3443 -19.5506 -19.3933 -19.3766 -18.9239
   -17.5689 -17.5682 -16.8237 -16.8190 -16.6313 -16.2816 -15.7978 -15.5405
   -14.8903 -14.6344 -14.6332 -14.1415 -13.2515 -13.2437 -12.4145 -12.1750
   -11.7226 -11.4999 -11.4995 -11.3244 -10.1870  -9.9507  -9.9485  -9.8804
    -9.7408  -9.4616  -9.3031  -9.1661  -9.1654  -8.9899  -8.9890  -8.8855
    -8.7596  -8.7497  -8.6059  -8.2265  -8.1024  -8.0565  -8.0546  -7.6681
    -7.2848  -7.0803  -6.8564  -6.7625  -6.7353  -6.4628  -6.1053  -5.8772
    -5.2762  -5.2502  -4.6845  -4.5064  -4.4295  -3.6493  -3.3934  -1.4172
    -1.0921  -0.7084  -0.0620  -0.0394   0.1621   0.4989   0.5598   0.8686
     1.5017   1.7468   2.1384   2.1679

          k = 0.0833 0.0722 0.0000 ( 31951 PWs)   bands (ev):

   -21.7081 -20.9787 -20.7372 -20.0190 -19.5748 -19.4996 -18.8365 -18.6055
   -18.1479 -17.4864 -16.8965 -16.8198 -16.8098 -16.6123 -16.2457 -15.1508
   -14.6614 -14.5620 -14.0455 -13.9261 -13.2501 -13.2440 -12.2323 -12.2181
   -12.0001 -11.7852 -11.5218 -11.3185 -10.7368 -10.3515  -9.7797  -9.7425
    -9.7300  -9.6912  -9.3693  -9.3038  -9.1647  -8.9939  -8.8335  -8.7780
    -8.6734  -8.6494  -8.5188  -8.4806  -8.1659  -7.8195  -7.5282  -7.3499
    -7.3401  -6.9824  -6.7788  -6.7518  -6.4400  -6.3951  -6.1555  -6.0542
    -5.7576  -5.1673  -4.7559  -4.5008  -4.4563  -3.9918  -3.7666  -1.0621
    -0.7421  -0.5667  -0.0754   0.2727   0.4300   0.5248   0.7280   0.9968
     1.4563   1.6019   1.6675   1.9171

          k = 0.0833-0.1443 0.0000 ( 31876 PWs)   bands (ev):

   -21.4370 -21.4304 -20.4691 -20.4640 -19.5360 -18.5821 -18.5791 -18.5736
   -18.5682 -17.6729 -17.6669 -16.8242 -16.8136 -16.3201 -16.3125 -15.2625
   -15.2608 -13.2578 -13.2524 -13.0947 -13.0901 -13.0869 -13.0809 -13.0154
   -13.0122 -11.4026 -11.3957 -11.3113 -10.7111 -10.7072  -9.9320  -9.9274
    -9.7308  -9.4914  -9.4591  -9.3036  -9.0998  -9.0936  -9.0904  -9.0856
    -8.7841  -8.7074  -8.3125  -8.2667  -7.5992  -7.5883  -7.2784  -7.2630
    -7.1160  -6.7891  -6.7841  -6.6183  -6.6135  -6.2205  -6.1591  -6.1432
    -6.0988  -5.2138  -5.1339  -4.5437  -4.4240  -4.1352  -4.0705  -0.9202
    -0.9007   0.3603   0.3848   0.4670   0.5221   0.5634   1.0665   1.3458
     1.3567   1.3710   1.3821   1.4041

          k =-0.1667 0.0000 0.0000 ( 31854 PWs)   bands (ev):

   -21.4355 -21.4321 -19.9960 -19.9910 -19.9871 -19.9847 -19.5205 -17.6725
   -17.6677 -16.8434 -16.8227 -16.7328 -16.7284 -16.3237 -16.3148 -15.6480
   -15.6473 -15.2589 -15.2511 -13.2473 -13.2196 -13.0198 -13.0183 -11.3938
   -11.3928 -11.2739 -10.7210 -10.7065 -10.2765 -10.2761 -10.2718 -10.2715
    -9.8079  -9.4837  -9.4755  -9.2997  -8.9497  -8.9480  -8.9213  -8.9184
    -8.9133  -8.9110  -8.7913  -8.7330  -7.9329  -7.7216  -7.7143  -7.7128
    -7.2895  -7.2712  -6.9224  -6.7543  -6.6482  -6.6085  -6.6026  -5.2547
    -5.1094  -4.7940  -4.7769  -4.5570  -4.4149  -4.1305  -4.0894  -0.9228
    -0.8830  -0.6750  -0.6736   0.3591   0.4420   0.5384   0.5650   0.6075
     0.8696   1.3658   1.4085   2.1954

          k =-0.1667 0.0722 0.0000 ( 31908 PWs)   bands (ev):

   -21.3442 -21.3409 -20.6179 -20.6157 -19.5382 -19.1909 -19.1783 -17.5905
   -17.5856 -17.1603 -17.1588 -17.0002 -16.9901 -16.8207 -16.8072 -15.2471
   -15.2468 -14.3132 -14.3068 -13.5727 -13.5701 -13.2439 -13.2181 -11.5205
   -11.5166 -11.2685 -10.8257 -10.8255 -10.6178 -10.6033  -9.8064  -9.7513
    -9.7359  -9.3898  -9.3715  -9.3012  -9.2592  -9.2558  -9.2183  -9.2177
    -8.8081  -8.7970  -8.4506  -8.4265  -7.9096  -7.9059  -7.6489  -7.6350
    -7.1914  -6.8371  -6.7385  -6.7282  -6.6446  -6.6431  -6.6111  -5.2162
    -5.0675  -4.8826  -4.8640  -4.7788  -4.7186  -4.3605  -4.3522  -0.5285
    -0.5173  -0.2705  -0.2507   0.2131   0.2656   0.5511   0.5770   0.6634
     0.9857   1.4934   1.5222   1.6899

          k =-0.1667-0.1443 0.0000 ( 31784 PWs)   bands (ev):

   -21.0756 -21.0696 -21.0664 -21.0663 -19.5336 -18.2386 -18.2353 -18.2337
   -18.2245 -17.3544 -17.3539 -17.3497 -17.3389 -16.8254 -16.8125 -14.4620
   -14.4608 -14.4541 -14.4507 -13.2467 -13.2218 -12.9233 -12.9211 -12.9165
   -12.9119 -11.2630 -10.3063 -10.2989 -10.2934 -10.2835  -9.9356  -9.9349
    -9.9192  -9.9160  -9.7966  -9.3030  -9.1336  -9.1273  -9.0829  -8.9929
    -8.6944  -8.6281  -8.3891  -8.3836  -8.3788  -8.3740  -7.0925  -7.0636
    -7.0618  -7.0532  -7.0530  -6.7820  -6.6554  -5.8797  -5.7739  -5.7569
    -5.6942  -5.1390  -4.9593  -4.9442  -4.9288  -4.4193  -4.3593  -0.2059
    -0.1504  -0.1182  -0.1159   0.4991   0.5421   0.7671   1.0696   1.0827
     1.0887   1.1048   1.1648   1.4117

          k =-0.0833 0.0722 0.0000 ( 31951 PWs)   bands (ev):

   -21.7081 -20.9787 -20.7372 -20.0190 -19.5748 -19.4996 -18.8365 -18.6055
   -18.1479 -17.4864 -16.8964 -16.8201 -16.8096 -16.6123 -16.2457 -15.1508
   -14.6614 -14.5620 -14.0455 -13.9261 -13.2500 -13.2441 -12.2323 -12.2181
   -12.0001 -11.7852 -11.5218 -11.3185 -10.7368 -10.3515  -9.7797  -9.7425
    -9.7300  -9.6912  -9.3693  -9.3038  -9.1647  -8.9938  -8.8334  -8.7780
    -8.6737  -8.6494  -8.5186  -8.4806  -8.1659  -7.8195  -7.5282  -7.3499
    -7.3401  -6.9825  -6.7774  -6.7530  -6.4400  -6.3950  -6.1555  -6.0542
    -5.7576  -5.1673  -4.7558  -4.5009  -4.4563  -3.9917  -3.7666  -1.0621
    -0.7421  -0.5667  -0.0754   0.2727   0.4295   0.5256   0.7278   0.9967
     1.4562   1.6019   1.6675   1.9171

     the Fermi energy is    -2.3734 ev

!    total energy              =    -351.25825728 Ry
     Harris-Foulkes estimate   =    -351.25825750 Ry
     estimated scf accuracy    <       0.00000031 Ry

     The total energy is the sum of the following terms:

     one-electron contribution =   -4809.96159610 Ry
     hartree contribution      =    2424.93567086 Ry
     xc contribution           =    -112.32579445 Ry
     ewald contribution        =    2146.09628239 Ry
     smearing contrib. (-TS)   =      -0.00281999 Ry

     convergence has been achieved in   5 iterations

     Forces acting on atoms (cartesian axes, Ry/au):

     atom    1 type  1   force =    -0.00014085   -0.00078359   -0.00003839
     atom    2 type  1   force =    -0.00000069    0.00194971    0.00167659
     atom    3 type  1   force =    -0.00000045   -0.00125299   -0.00173159
     atom    4 type  1   force =     0.00052585    0.00084055   -0.00395923
     atom    5 type  1   force =    -0.00037010   -0.00046094   -0.00262793
     atom    6 type  1   force =    -0.00000091   -0.00034851    0.00137095
     atom    7 type  1   force =     0.00000018   -0.00070764    0.00227912
     atom    8 type  1   force =     0.00049570    0.00018739    0.00076938
     atom    9 type  1   force =    -0.00000087   -0.00096866   -0.00316793
     atom   10 type  1   force =    -0.00029754    0.00082497   -0.00427927
     atom   11 type  1   force =    -0.00082146   -0.00055478   -0.00739891
     atom   12 type  1   force =    -0.00000107    0.00044830   -0.00895934
     atom   13 type  1   force =    -0.00000120   -0.00041154   -0.00738185
     atom   14 type  1   force =    -0.00026092    0.00030221   -0.00411111
     atom   15 type  1   force =     0.00023014    0.00054573   -0.00033106
     atom   16 type  1   force =     0.00000008    0.00028030    0.00152186
     atom   17 type  1   force =     0.00014172   -0.00078372   -0.00003839
     atom   18 type  1   force =     0.00029847    0.00082375   -0.00428020
     atom   19 type  1   force =     0.00082125   -0.00055434   -0.00739804
     atom   20 type  1   force =    -0.00052423    0.00084104   -0.00396031
     atom   21 type  1   force =     0.00037145   -0.00046102   -0.00262733
     atom   22 type  1   force =     0.00026153    0.00030175   -0.00411128
     atom   23 type  1   force =    -0.00023010    0.00054671   -0.00033073
     atom   24 type  1   force =    -0.00049503    0.00018786    0.00076947
     atom   25 type  1   force =    -0.00036893    0.00804713    0.00865740
     atom   26 type  1   force =     0.00039572    0.00762771    0.00865735
     atom   27 type  1   force =     0.00735557   -0.00416296    0.00868807
     atom   28 type  1   force =     0.00782422   -0.00389479    0.00865129
     atom   29 type  1   force =    -0.00785333   -0.00347382    0.00865161
     atom   30 type  1   force =    -0.00735548   -0.00463834    0.00868856
     atom   31 type  2   force =     0.00141856   -0.00256461    0.00102041
     atom   32 type  2   force =    -0.00141879   -0.00253872    0.00102068
     atom   33 type  2   force =    -0.00233707    0.00004265    0.00113765
     atom   34 type  2   force =    -0.00161844    0.00235791    0.00101745
     atom   35 type  2   force =     0.00161814    0.00233420    0.00101752
     atom   36 type  2   force =     0.00233888    0.00007113    0.00113751

     Total force =     0.036398     Total SCF correction =     0.001461

     number of scf cycles    =   3
     number of bfgs steps    =   2

     energy   old            =    -351.2569782931 Ry
     energy   new            =    -351.2582572822 Ry

     CASE: energy  _new < energy  _old

     new trust radius        =       0.0198230646 bohr
     new conv_thr            =       0.0000008959 Ry


ATOMIC_POSITIONS (angstrom)
C        1.230821393   0.001122341   0.000004464
C        0.000000708   0.710469593   0.004293818
C        0.000000339   2.132259709  -0.001713247
C        1.230726372   2.840161566  -0.010779075
C        1.231119779   4.260156802  -0.004718151
C        0.000000836   4.969314629   0.002785607
C        0.000000801   6.391169447   0.002994886
C        1.230207944   7.101221864   0.001586648
C        3.690000290   0.001695251  -0.005517543
C        2.460898632   0.711316590  -0.011326866
C        2.461335391   2.131181305  -0.019134081
C        3.690000473   2.840239811  -0.022266542
C        3.690000523   4.259996169  -0.019511005
C        2.461170300   4.969673436  -0.011173337
C        2.460695456   6.390244591   0.000087712
C        3.690000244   7.102299229   0.003581237
C        6.149178344   0.001122485   0.000003660
C        4.919101093   0.711317221  -0.011328143
C        4.918664535   2.131181327  -0.019137831
C        6.149273054   2.840161594  -0.010778588
C        6.148879628   4.260156780  -0.004717099
C        4.918829490   4.969673486  -0.011171239
C        4.919304618   6.390243852   0.000088395
C        6.149791828   7.101221410   0.001586695
C        4.385753283   1.629603225   3.022696596
C        2.994276371   1.629819584   3.022694257
C        2.295527576   2.843064123   3.022799158
C        2.989544607   4.048690370   3.022685469
C        4.390423024   4.048476464   3.022683037
C        5.084473092   2.843240583   3.022799003
H        4.929575726   0.693447130   3.001555717
H        2.450423174   0.693523136   3.001554841
H        1.213551946   2.840574550   3.001847882
H        2.450269135   4.987520230   3.001548221
H        4.929731196   4.987445500   3.001547474
H        6.166448799   2.840654243   3.001847968



     Writing output data file batch_graph+benzene.save/
     NEW-OLD atomic charge density approx. for the potential

     negative rho (up, down):  2.091E-04 0.000E+00

     total cpu time spent up to now is      680.3 secs

     Self-consistent Calculation

     iteration #  1     ecut=    32.00 Ry     beta= 0.50
     Davidson diagonalization with overlap
     ethr =  1.00E-06,  avg # of iterations =  4.0

     negative rho (up, down):  2.089E-04 0.000E+00

     total cpu time spent up to now is      730.2 secs

     total energy              =    -351.25984171 Ry
     Harris-Foulkes estimate   =    -351.26019332 Ry
     estimated scf accuracy    <       0.00078565 Ry

     iteration #  2     ecut=    32.00 Ry     beta= 0.50
     Davidson diagonalization with overlap
     ethr =  6.24E-07,  avg # of iterations =  2.0

     negative rho (up, down):  2.098E-04 0.000E+00

     total cpu time spent up to now is      760.3 secs

     total energy              =    -351.25997739 Ry
     Harris-Foulkes estimate   =    -351.26000297 Ry
     estimated scf accuracy    <       0.00009869 Ry

     iteration #  3     ecut=    32.00 Ry     beta= 0.50
     Davidson diagonalization with overlap
     ethr =  7.83E-08,  avg # of iterations =  2.0

     negative rho (up, down):  2.090E-04 0.000E+00

     total cpu time spent up to now is      790.5 secs

     total energy              =    -351.25999261 Ry
     Harris-Foulkes estimate   =    -351.25999675 Ry
     estimated scf accuracy    <       0.00002362 Ry

     iteration #  4     ecut=    32.00 Ry     beta= 0.50
     Davidson diagonalization with overlap
     ethr =  1.87E-08,  avg # of iterations =  2.2

     negative rho (up, down):  2.103E-04 0.000E+00

     total cpu time spent up to now is      819.6 secs

     total energy              =    -351.25999631 Ry
     Harris-Foulkes estimate   =    -351.25999777 Ry
     estimated scf accuracy    <       0.00000673 Ry

     iteration #  5     ecut=    32.00 Ry     beta= 0.50
     Davidson diagonalization with overlap
     ethr =  5.34E-09,  avg # of iterations =  2.2

     negative rho (up, down):  2.088E-04 0.000E+00

     total cpu time spent up to now is      847.9 secs

     End of self-consistent calculation

          k = 0.0000 0.0000 0.0000 ( 31971 PWs)   bands (ev):

   -21.9266 -20.4730 -20.4688 -19.9987 -19.9896 -19.5414 -18.5845 -18.5823
   -18.5776 -18.5773 -16.8292 -16.8151 -16.7374 -15.6472 -15.0770 -15.0735
   -15.0714 -15.0685 -13.2921 -13.2568 -13.0998 -13.0969 -13.0915 -13.0910
   -12.9564 -12.9549 -11.3779 -10.2877 -10.2822 -10.0180  -9.9302  -9.9288
    -9.6886  -9.3100  -9.0989  -9.0985  -9.0932  -9.0928  -8.9576  -8.9147
    -8.9126  -8.7771  -8.6339  -8.3898  -8.2250  -7.8275  -7.7084  -7.6049
    -7.6043  -7.0518  -6.8846  -6.7952  -6.2159  -6.2097  -6.1177  -6.0869
    -5.6356  -5.6235  -4.8001  -4.4849  -4.4751  -2.3842  -2.3797  -2.3759
    -2.3732  -0.6732  -0.0427   0.4165   0.4957   0.6914   1.3414   1.3457
     1.3661   1.3988   1.5870   1.9804

          k = 0.0000 0.0722 0.0000 ( 31929 PWs)   bands (ev):

   -21.8348 -21.1041 -19.9107 -19.9001 -19.6732 -19.5359 -19.1902 -19.1864
   -17.8165 -17.8141 -17.6009 -16.8208 -16.8151 -15.9449 -15.9440 -14.6583
   -14.5445 -14.5435 -13.6991 -13.6968 -13.2842 -13.2482 -12.4362 -12.4345
   -12.3734 -12.3706 -11.5634 -11.3703 -10.7462 -10.7416 -10.1380 -10.1375
    -9.9175  -9.6823  -9.3107  -9.1173  -8.8669  -8.6772  -8.6329  -8.6015
    -8.6012  -8.4317  -8.4302  -8.3536  -8.1688  -7.7791  -7.6183  -7.4344
    -7.1076  -6.9592  -6.9344  -6.8708  -6.6797  -6.6782  -5.9886  -5.8265
    -5.4056  -5.3725  -5.2753  -4.4827  -4.4782  -3.3894  -3.3764  -1.4030
    -1.3927  -0.0465   0.0962   0.3492   0.3887   0.5732   0.5743   0.8207
     1.3271   1.7873   1.8629   2.2043

          k = 0.0000-0.1443 0.0000 ( 31940 PWs)   bands (ev):

   -21.5629 -21.5571 -19.6732 -19.6394 -19.6361 -19.6289 -19.5067 -18.6998
   -18.6905 -16.9451 -16.9280 -16.9171 -16.9153 -16.8009 -16.7957 -14.1662
   -14.1646 -14.1615 -14.1596 -13.2922 -13.2490 -13.1665 -13.1557 -11.5623
   -11.5584 -11.5552 -11.5528 -11.3686 -11.3358 -11.3350 -11.3336 -11.3311
    -9.6770  -9.6214  -9.6068  -9.3106  -8.7034  -8.6275  -8.6021  -8.5941
    -8.2972  -8.2948  -8.2880  -8.2857  -7.6235  -7.3537  -7.3400  -7.3286
    -6.9883  -6.9860  -6.9605  -6.8110  -6.7390  -6.3517  -6.3260  -6.3151
    -6.2257  -4.7416  -4.6632  -4.4086  -4.3943  -4.2457  -4.1770  -0.4977
    -0.4667  -0.4560  -0.4469   0.3336   0.4442   0.5067   0.8909   1.1896
     1.2605   1.4221   1.4686   2.0706

          k = 0.0833 0.0000 0.0000 ( 31951 PWs)   bands (ev):

   -21.8042 -20.8323 -20.3535 -20.3489 -19.5580 -19.3979 -19.3832 -18.9286
   -17.5737 -17.5727 -16.8281 -16.8249 -16.6360 -16.2867 -15.8022 -15.5464
   -14.8962 -14.6387 -14.6380 -14.1457 -13.2554 -13.2486 -12.4200 -12.1793
   -11.7266 -11.5047 -11.5044 -11.3330 -10.1929  -9.9567  -9.9545  -9.8819
    -9.7423  -9.4658  -9.3070  -9.1710  -9.1708  -8.9951  -8.9946  -8.8867
    -8.7644  -8.7549  -8.6064  -8.2270  -8.1053  -8.0601  -8.0591  -7.6746
    -7.2895  -7.0834  -6.8682  -6.7620  -6.7381  -6.4701  -6.1088  -5.8840
    -5.2780  -5.2531  -4.6856  -4.5133  -4.4392  -3.6563  -3.3980  -1.4230
    -1.0958  -0.7149  -0.0646  -0.0424   0.1640   0.5003   0.5584   0.8657
     1.5032   1.7472   2.1380   2.1677

          k = 0.0833 0.0722 0.0000 ( 31951 PWs)   bands (ev):

   -21.7126 -20.9832 -20.7417 -20.0234 -19.5800 -19.5083 -18.8413 -18.6103
   -18.1526 -17.4909 -16.9003 -16.8246 -16.8164 -16.6176 -16.2508 -15.1553
   -14.6657 -14.5674 -14.0510 -13.9305 -13.2541 -13.2489 -12.2366 -12.2231
   -12.0044 -11.7905 -11.5274 -11.3271 -10.7415 -10.3563  -9.7817  -9.7452
    -9.7346  -9.6962  -9.3735  -9.3077  -9.1691  -8.9965  -8.8343  -8.7834
    -8.6776  -8.6538  -8.5212  -8.4867  -8.1713  -7.8209  -7.5341  -7.3540
    -7.3427  -6.9974  -6.7813  -6.7507  -6.4451  -6.3995  -6.1592  -6.0595
    -5.7615  -5.1689  -4.7567  -4.5076  -4.4652  -3.9996  -3.7737  -1.0662
    -0.7470  -0.5711  -0.0799   0.2750   0.4334   0.5252   0.7213   0.9937
     1.4587   1.6036   1.6628   1.9136

          k = 0.0833-0.1443 0.0000 ( 31876 PWs)   bands (ev):

   -21.4411 -21.4354 -20.4732 -20.4688 -19.5451 -18.5863 -18.5842 -18.5783
   -18.5731 -17.6784 -17.6706 -16.8285 -16.8202 -16.3243 -16.3187 -15.2677
   -15.2643 -13.2611 -13.2566 -13.0989 -13.0958 -13.0924 -13.0865 -13.0198
   -13.0186 -11.4059 -11.4013 -11.3200 -10.7155 -10.7134  -9.9365  -9.9320
    -9.7324  -9.4910  -9.4633  -9.3076  -9.1027  -9.0983  -9.0961  -9.0915
    -8.7852  -8.7130  -8.3120  -8.2708  -7.6049  -7.5939  -7.2849  -7.2683
    -7.1302  -6.7910  -6.7827  -6.6218  -6.6188  -6.2216  -6.1626  -6.1477
    -6.1044  -5.2143  -5.1367  -4.5478  -4.4360  -4.1402  -4.0808  -0.9258
    -0.9040   0.3635   0.3858   0.4655   0.5212   0.5603   1.0680   1.3415
     1.3540   1.3648   1.3749   1.3985

          k =-0.1667 0.0000 0.0000 ( 31854 PWs)   bands (ev):

   -21.4387 -21.4379 -20.0013 -19.9939 -19.9905 -19.9905 -19.5307 -17.6770
   -17.6724 -16.8470 -16.8283 -16.7381 -16.7343 -16.3261 -16.3214 -15.6524
   -15.6517 -15.2637 -15.2581 -13.2521 -13.2238 -13.0239 -13.0226 -11.3994
   -11.3987 -11.2830 -10.7253 -10.7106 -10.2823 -10.2806 -10.2783 -10.2769
    -9.8085  -9.4842  -9.4782  -9.3037  -8.9542  -8.9534  -8.9268  -8.9235
    -8.9171  -8.9148  -8.7922  -8.7394  -7.9308  -7.7253  -7.7166  -7.7151
    -7.2927  -7.2752  -6.9447  -6.7571  -6.6469  -6.6147  -6.6095  -5.2521
    -5.1144  -4.7968  -4.7792  -4.5622  -4.4259  -4.1350  -4.0978  -0.9285
    -0.8900  -0.6798  -0.6780   0.3610   0.4379   0.5411   0.5639   0.6042
     0.8714   1.3628   1.4062   2.1961

          k =-0.1667 0.0722 0.0000 ( 31908 PWs)   bands (ev):

   -21.3474 -21.3467 -20.6215 -20.6211 -19.5468 -19.1941 -19.1852 -17.5950
   -17.5903 -17.1646 -17.1632 -17.0042 -16.9948 -16.8262 -16.8143 -15.2515
   -15.2513 -14.3174 -14.3136 -13.5769 -13.5745 -13.2492 -13.2223 -11.5251
   -11.5232 -11.2776 -10.8312 -10.8309 -10.6221 -10.6074  -9.8067  -9.7558
    -9.7400  -9.3901  -9.3745  -9.3050  -9.2648  -9.2605  -9.2236  -9.2232
    -8.8092  -8.8017  -8.4526  -8.4291  -7.9153  -7.9101  -7.6529  -7.6396
    -7.2002  -6.8404  -6.7413  -6.7374  -6.6498  -6.6495  -6.6132  -5.2129
    -5.0718  -4.8822  -4.8668  -4.7837  -4.7215  -4.3744  -4.3658  -0.5325
    -0.5216  -0.2756  -0.2558   0.2130   0.2616   0.5468   0.5789   0.6642
     0.9874   1.4898   1.5196   1.6943

          k =-0.1667-0.1443 0.0000 ( 31784 PWs)   bands (ev):

   -21.0780 -21.0753 -21.0722 -21.0703 -19.5427 -18.2427 -18.2420 -18.2359
   -18.2304 -17.3587 -17.3579 -17.3542 -17.3443 -16.8305 -16.8192 -14.4666
   -14.4662 -14.4575 -14.4551 -13.2517 -13.2256 -12.9277 -12.9253 -12.9236
   -12.9188 -11.2721 -10.3094 -10.3045 -10.2962 -10.2887  -9.9418  -9.9406
    -9.9242  -9.9203  -9.7975  -9.3069  -9.1302  -9.1299  -9.0881  -8.9958
    -8.6953  -8.6335  -8.3932  -8.3889  -8.3827  -8.3798  -7.1088  -7.0700
    -7.0667  -7.0588  -7.0579  -6.7848  -6.6540  -5.8785  -5.7743  -5.7610
    -5.7010  -5.1356  -4.9642  -4.9484  -4.9334  -4.4321  -4.3735  -0.2077
    -0.1565  -0.1202  -0.1190   0.4964   0.5478   0.7685   1.0643   1.0756
     1.0814   1.1014   1.1640   1.4142

          k =-0.0833 0.0722 0.0000 ( 31951 PWs)   bands (ev):

   -21.7126 -20.9832 -20.7417 -20.0234 -19.5800 -19.5083 -18.8413 -18.6103
   -18.1526 -17.4909 -16.9002 -16.8254 -16.8157 -16.6176 -16.2508 -15.1553
   -14.6657 -14.5674 -14.0510 -13.9305 -13.2539 -13.2490 -12.2366 -12.2231
   -12.0044 -11.7905 -11.5274 -11.3271 -10.7415 -10.3563  -9.7818  -9.7452
    -9.7346  -9.6962  -9.3735  -9.3077  -9.1691  -8.9965  -8.8343  -8.7834
    -8.6777  -8.6538  -8.5212  -8.4867  -8.1713  -7.8209  -7.5341  -7.3540
    -7.3427  -6.9975  -6.7796  -6.7524  -6.4451  -6.3994  -6.1592  -6.0595
    -5.7615  -5.1689  -4.7563  -4.5079  -4.4653  -3.9995  -3.7737  -1.0661
    -0.7470  -0.5711  -0.0799   0.2751   0.4325   0.5265   0.7209   0.9937
     1.4587   1.6036   1.6628   1.9136

     the Fermi energy is    -2.3782 ev

!    total energy              =    -351.25999738 Ry
     Harris-Foulkes estimate   =    -351.25999782 Ry
     estimated scf accuracy    <       0.00000086 Ry

     The total energy is the sum of the following terms:

     one-electron contribution =   -4804.70230883 Ry
     hartree contribution      =    2422.28656076 Ry
     xc contribution           =    -112.33134489 Ry
     ewald contribution        =    2143.48991589 Ry
     smearing contrib. (-TS)   =      -0.00282031 Ry

     convergence has been achieved in   5 iterations

     Forces acting on atoms (cartesian axes, Ry/au):

     atom    1 type  1   force =    -0.00056114   -0.00075731   -0.00001156
     atom    2 type  1   force =    -0.00000071    0.00082543    0.00024564
     atom    3 type  1   force =    -0.00000007   -0.00099538   -0.00257217
     atom    4 type  1   force =     0.00011782    0.00065496   -0.00336359
     atom    5 type  1   force =    -0.00082600   -0.00004671   -0.00288060
     atom    6 type  1   force =    -0.00000122    0.00060739    0.00063035
     atom    7 type  1   force =    -0.00000046   -0.00088225    0.00203822
     atom    8 type  1   force =     0.00045050    0.00024419    0.00105746
     atom    9 type  1   force =    -0.00000074   -0.00084869   -0.00285381
     atom   10 type  1   force =    -0.00043870   -0.00014735   -0.00353485
     atom   11 type  1   force =    -0.00122192   -0.00070267   -0.00631572
     atom   12 type  1   force =    -0.00000125    0.00078453   -0.00826765
     atom   13 type  1   force =    -0.00000070   -0.00022264   -0.00635564
     atom   14 type  1   force =    -0.00051645    0.00087918   -0.00324220
     atom   15 type  1   force =    -0.00029755    0.00082804   -0.00055090
     atom   16 type  1   force =     0.00000028   -0.00063095    0.00012060
     atom   17 type  1   force =     0.00056170   -0.00075785   -0.00001138
     atom   18 type  1   force =     0.00043971   -0.00014877   -0.00353568
     atom   19 type  1   force =     0.00122283   -0.00070207   -0.00631340
     atom   20 type  1   force =    -0.00011726    0.00065485   -0.00336536
     atom   21 type  1   force =     0.00082752   -0.00004646   -0.00288003
     atom   22 type  1   force =     0.00051679    0.00087812   -0.00324314
     atom   23 type  1   force =     0.00029729    0.00082966   -0.00055078
     atom   24 type  1   force =    -0.00044983    0.00024484    0.00105760
     atom   25 type  1   force =    -0.00054684    0.00832297    0.00753538
     atom   26 type  1   force =     0.00062382    0.00760535    0.00753312
     atom   27 type  1   force =     0.00692554   -0.00392870    0.00753128
     atom   28 type  1   force =     0.00799243   -0.00408293    0.00752790
     atom   29 type  1   force =    -0.00807747   -0.00335162    0.00752613
     atom   30 type  1   force =    -0.00691682   -0.00480872    0.00753188
     atom   31 type  2   force =     0.00223578   -0.00382882    0.00155225
     atom   32 type  2   force =    -0.00217884   -0.00369416    0.00155515
     atom   33 type  2   force =    -0.00407913    0.00003074    0.00165273
     atom   34 type  2   force =    -0.00237916    0.00362870    0.00154881
     atom   35 type  2   force =     0.00232154    0.00349412    0.00155142
     atom   36 type  2   force =     0.00407871    0.00007100    0.00165254

     Total force =     0.034576     Total SCF correction =     0.002574

     number of scf cycles    =   4
     number of bfgs steps    =   3

     energy   old            =    -351.2582572822 Ry
     energy   new            =    -351.2599973778 Ry

     CASE: energy  _new < energy  _old

     new trust radius        =       0.0297345970 bohr
     new conv_thr            =       0.0000008323 Ry


ATOMIC_POSITIONS (angstrom)
C        1.230864882   0.001564738   0.000017848
C        0.000000657   0.710731889   0.005972941
C        0.000000453   2.132627446  -0.004225296
C        1.230913065   2.840061704  -0.018067312
C        1.231260484   4.260015650  -0.008794824
C        0.000000617   4.969295599   0.004207390
C        0.000000622   6.390544664   0.005559214
C        1.230425493   7.101199325   0.003072428
C        3.690000168   0.001931197  -0.009553511
C        2.461055487   0.711366658  -0.018946967
C        2.461401245   2.131384976  -0.032215355
C        3.690000224   2.840399624  -0.037960937
C        3.690000793   4.259677170  -0.032585392
C        2.461423813   4.969606525  -0.018512083
C        2.460779961   6.390162149  -0.000217746
C        3.690000259   7.102103833   0.004866566
C        6.149134829   0.001564667   0.000016698
C        4.918944375   0.711367042  -0.018949122
C        4.918599335   2.131385150  -0.032219766
C        6.149086173   2.840061516  -0.018067412
C        6.148739176   4.260015785  -0.008793024
C        4.918575857   4.969606104  -0.018509490
C        4.919220223   6.390161572  -0.000216751
C        6.149574704   7.101198794   0.003072567
C        4.385023504   1.630527823   3.038273959
C        2.994954306   1.630510162   3.038268058
C        2.297418407   2.842923377   3.038417816
C        2.990552164   4.047864570   3.038252441
C        4.389461411   4.047894730   3.038246588
C        5.082588538   2.842945202   3.038417818
H        4.928823975   0.694783338   3.003368212
H        2.451131830   0.694796778   3.003369093
H        1.216419062   2.840616575   3.003862269
H        2.450899259   4.986031723   3.003354884
H        4.929143336   4.986019781   3.003355841
H        6.163581312   2.840711795   3.003862357



     Writing output data file batch_graph+benzene.save/
     NEW-OLD atomic charge density approx. for the potential

     negative rho (up, down):  2.121E-04 0.000E+00

     total cpu time spent up to now is      862.7 secs

     Self-consistent Calculation

     iteration #  1     ecut=    32.00 Ry     beta= 0.50
     Davidson diagonalization with overlap
     ethr =  1.00E-06,  avg # of iterations =  4.0

     negative rho (up, down):  2.113E-04 0.000E+00

     total cpu time spent up to now is      919.5 secs

     total energy              =    -351.26187432 Ry
     Harris-Foulkes estimate   =    -351.26267204 Ry
     estimated scf accuracy    <       0.00178048 Ry

     iteration #  2     ecut=    32.00 Ry     beta= 0.50
     Davidson diagonalization with overlap
     ethr =  1.41E-06,  avg # of iterations =  2.5

     negative rho (up, down):  2.130E-04 0.000E+00

     total cpu time spent up to now is      950.4 secs

     total energy              =    -351.26218497 Ry
     Harris-Foulkes estimate   =    -351.26223666 Ry
     estimated scf accuracy    <       0.00021322 Ry

     iteration #  3     ecut=    32.00 Ry     beta= 0.50
     Davidson diagonalization with overlap
     ethr =  1.69E-07,  avg # of iterations =  2.0

     negative rho (up, down):  2.148E-04 0.000E+00

     total cpu time spent up to now is      979.8 secs

     total energy              =    -351.26221950 Ry
     Harris-Foulkes estimate   =    -351.26222081 Ry
     estimated scf accuracy    <       0.00004028 Ry

     iteration #  4     ecut=    32.00 Ry     beta= 0.50
     Davidson diagonalization with overlap
     ethr =  3.20E-08,  avg # of iterations =  2.0

     negative rho (up, down):  2.188E-04 0.000E+00

     total cpu time spent up to now is     1008.7 secs

     total energy              =    -351.26222525 Ry
     Harris-Foulkes estimate   =    -351.26222456 Ry
     estimated scf accuracy    <       0.00000465 Ry

     iteration #  5     ecut=    32.00 Ry     beta= 0.50
     Davidson diagonalization with overlap
     ethr =  3.69E-09,  avg # of iterations =  2.0

     negative rho (up, down):  2.108E-04 0.000E+00

     total cpu time spent up to now is     1037.0 secs

     End of self-consistent calculation

          k = 0.0000 0.0000 0.0000 ( 31971 PWs)   bands (ev):

   -21.9331 -20.4791 -20.4756 -20.0049 -19.9962 -19.5569 -18.5922 -18.5888
   -18.5842 -18.5840 -16.8365 -16.8192 -16.7455 -15.6538 -15.0843 -15.0801
   -15.0780 -15.0763 -13.2937 -13.2565 -13.1066 -13.1051 -13.0987 -13.0985
   -12.9634 -12.9622 -11.3837 -10.2949 -10.2905 -10.0220  -9.9363  -9.9355
    -9.6795  -9.3172  -9.1063  -9.1045  -9.1010  -9.1003  -8.9652  -8.9209
    -8.9199  -8.7816  -8.6330  -8.3876  -8.2291  -7.8300  -7.7122  -7.6124
    -7.6118  -7.0771  -6.8801  -6.7922  -6.2169  -6.2128  -6.1229  -6.0998
    -5.6435  -5.6302  -4.8034  -4.4950  -4.4903  -2.3912  -2.3863  -2.3827
    -2.3810  -0.6803  -0.0397   0.4205   0.5042   0.6859   1.3340   1.3372
     1.3574   1.3879   1.5862   1.9835

          k = 0.0000 0.0722 0.0000 ( 31929 PWs)   bands (ev):

   -21.8413 -21.1106 -19.9167 -19.9066 -19.6793 -19.5512 -19.1968 -19.1943
   -17.8235 -17.8206 -17.6077 -16.8293 -16.8192 -15.9524 -15.9507 -14.6651
   -14.5513 -14.5509 -13.7058 -13.7041 -13.2865 -13.2488 -12.4432 -12.4415
   -12.3803 -12.3782 -11.5704 -11.3763 -10.7532 -10.7497 -10.1455 -10.1441
    -9.9203  -9.6733  -9.3179  -9.1201  -8.8745  -8.6801  -8.6321  -8.6089
    -8.6076  -8.4382  -8.4382  -8.3608  -8.1767  -7.7774  -7.6213  -7.4392
    -7.1200  -6.9672  -6.9354  -6.8697  -6.6984  -6.6784  -5.9953  -5.8349
    -5.4066  -5.3749  -5.2822  -4.4935  -4.4928  -3.3965  -3.3856  -1.4097
    -1.3998  -0.0503   0.0993   0.3499   0.3892   0.5647   0.5724   0.8150
     1.3302   1.7847   1.8592   2.2013

          k = 0.0000-0.1443 0.0000 ( 31940 PWs)   bands (ev):

   -21.5684 -21.5647 -19.6792 -19.6445 -19.6415 -19.6366 -19.5239 -18.7065
   -18.6975 -16.9488 -16.9336 -16.9237 -16.9226 -16.8069 -16.8066 -14.1713
   -14.1713 -14.1700 -14.1677 -13.2935 -13.2496 -13.1748 -13.1620 -11.5698
   -11.5661 -11.5616 -11.5604 -11.3736 -11.3436 -11.3433 -11.3396 -11.3382
    -9.6680  -9.6219  -9.6116  -9.3180  -8.7067  -8.6263  -8.6077  -8.6041
    -8.3038  -8.3023  -8.2943  -8.2940  -7.6216  -7.3581  -7.3416  -7.3331
    -6.9998  -6.9935  -6.9663  -6.8240  -6.7360  -6.3529  -6.3334  -6.3238
    -6.2371  -4.7394  -4.6612  -4.4142  -4.4027  -4.2616  -4.1986  -0.5033
    -0.4721  -0.4618  -0.4560   0.3359   0.4472   0.5131   0.8912   1.1841
     1.2601   1.4138   1.4593   2.0679

          k = 0.0833 0.0000 0.0000 ( 31951 PWs)   bands (ev):

   -21.8107 -20.8387 -20.3595 -20.3558 -19.5707 -19.4049 -19.3921 -18.9355
   -17.5806 -17.5792 -16.8332 -16.8315 -16.6437 -16.2938 -15.8096 -15.5529
   -14.9028 -14.6459 -14.6449 -14.1531 -13.2578 -13.2494 -12.4268 -12.1866
   -11.7342 -11.5120 -11.5114 -11.3395 -10.1997  -9.9646  -9.9616  -9.8835
    -9.7328  -9.4734  -9.3143  -9.1787  -9.1778  -9.0024  -9.0018  -8.8868
    -8.7717  -8.7598  -8.6050  -8.2273  -8.1095  -8.0678  -8.0670  -7.6816
    -7.2973  -7.0874  -6.8863  -6.7606  -6.7350  -6.4798  -6.1171  -5.8907
    -5.2801  -5.2569  -4.6886  -4.5228  -4.4543  -3.6652  -3.4062  -1.4297
    -1.1026  -0.7220  -0.0693  -0.0481   0.1663   0.5020   0.5592   0.8604
     1.5059   1.7472   2.1350   2.1677

          k = 0.0833 0.0722 0.0000 ( 31951 PWs)   bands (ev):

   -21.7191 -20.9897 -20.7482 -20.0297 -19.5886 -19.5215 -18.8481 -18.6171
   -18.1593 -17.4977 -16.9054 -16.8306 -16.8238 -16.6254 -16.2579 -15.1625
   -14.6730 -14.5742 -14.0578 -13.9376 -13.2564 -13.2498 -12.2441 -12.2302
   -12.0117 -11.7974 -11.5344 -11.3335 -10.7488 -10.3635  -9.7849  -9.7470
    -9.7304  -9.7025  -9.3811  -9.3149  -9.1768  -8.9993  -8.8332  -8.7904
    -8.6799  -8.6617  -8.5231  -8.4937  -8.1785  -7.8229  -7.5412  -7.3619
    -7.3469  -7.0204  -6.7769  -6.7494  -6.4535  -6.4048  -6.1648  -6.0667
    -5.7663  -5.1722  -4.7568  -4.5182  -4.4784  -4.0113  -3.7828  -1.0733
    -0.7532  -0.5785  -0.0848   0.2781   0.4390   0.5270   0.7113   0.9882
     1.4619   1.6064   1.6559   1.9071

          k = 0.0833-0.1443 0.0000 ( 31876 PWs)   bands (ev):

   -21.4465 -21.4430 -20.4787 -20.4762 -19.5600 -18.5921 -18.5904 -18.5857
   -18.5811 -17.6851 -17.6773 -16.8323 -16.8288 -16.3311 -16.3260 -15.2756
   -15.2708 -13.2626 -13.2568 -13.1070 -13.1041 -13.0989 -13.0930 -13.0274
[...]

     CASE: energy  _new < energy  _old

     new trust radius        =       0.0003679280 bohr
     new conv_thr            =       0.0000000100 Ry


ATOMIC_POSITIONS (angstrom)
C        1.230208102   0.004593391  -0.176053960
C       -0.000029730   0.714569579  -0.176860401
C       -0.000031163   2.135208406  -0.186543419
C        1.230361902   2.844440897  -0.193038860
C        1.230291654   4.264683678  -0.186649073
C       -0.000024382   4.974581473  -0.176977279
C       -0.000031891   6.395311553  -0.169441953
C        1.230073225   7.105371569  -0.170742116
C        3.689967809   0.005001659  -0.185136084
C        2.460360458   0.714802572  -0.189669381
C        2.460467919   2.134811760  -0.200532350
C        3.689977875   2.844403734  -0.205600010
C        3.689965829   4.264379734  -0.199376752
C        2.460615355   4.974340687  -0.188696675
C        2.460363254   6.394958768  -0.176659296
C        3.689972802   7.105816483  -0.176457735
C        6.149731322   0.004592076  -0.176053164
C        4.919583629   0.714803370  -0.189668385
C        4.919464946   2.134811499  -0.200532150
C        6.149585724   2.844440806  -0.193040171
C        6.149639638   4.264685149  -0.186652269
C        4.919337715   4.974340109  -0.188699939
C        4.919573327   6.394959261  -0.176661512
C        6.149874374   7.105371947  -0.170743117
C        4.387352654   1.623144124   3.374116674
C        2.992708578   1.623168012   3.374129051
C        2.296723629   2.832638729   3.374358537
C        2.992439670   4.041292722   3.373829882
C        4.387739183   4.041251976   3.373829532
C        5.083378957   2.832579464   3.374345008
H        4.931956001   0.682721585   3.365770973
H        2.448061789   0.682776739   3.365791383
H        1.210946425   2.832495129   3.366945927
H        2.448279996   4.981990240   3.365225076
H        4.931940977   4.981937703   3.365225181
H        6.169172448   2.832383045   3.366918827



     Writing output data file batch_graph+benzene.save/
     NEW-OLD atomic charge density approx. for the potential

     negative rho (up, down):  1.990E-04 0.000E+00

     total cpu time spent up to now is    13316.8 secs

     Self-consistent Calculation

     iteration #  1     ecut=    32.00 Ry     beta= 0.50
     Davidson diagonalization with overlap
     ethr =  1.00E-06,  avg # of iterations =  2.0

     Threshold (ethr) on eigenvalues was too large:
     Diagonalizing with lowered threshold

     Davidson diagonalization with overlap
     ethr =  8.13E-11,  avg # of iterations =  3.0

     negative rho (up, down):  1.989E-04 0.000E+00

     total cpu time spent up to now is    13378.9 secs

     total energy              =    -351.28203968 Ry
     Harris-Foulkes estimate   =    -351.28203975 Ry
     estimated scf accuracy    <       0.00000018 Ry

     iteration #  2     ecut=    32.00 Ry     beta= 0.50
     Davidson diagonalization with overlap
     ethr =  1.39E-10,  avg # of iterations =  2.1

     negative rho (up, down):  1.989E-04 0.000E+00

     total cpu time spent up to now is    13410.2 secs

     total energy              =    -351.28203972 Ry
     Harris-Foulkes estimate   =    -351.28203973 Ry
     estimated scf accuracy    <       0.00000006 Ry

     iteration #  3     ecut=    32.00 Ry     beta= 0.50
     Davidson diagonalization with overlap
     ethr =  4.58E-11,  avg # of iterations =  2.7

     negative rho (up, down):  1.989E-04 0.000E+00

     total cpu time spent up to now is    13440.1 secs

     total energy              =    -351.28203972 Ry
     Harris-Foulkes estimate   =    -351.28203974 Ry
     estimated scf accuracy    <       0.00000002 Ry

     iteration #  4     ecut=    32.00 Ry     beta= 0.50
     Davidson diagonalization with overlap
     ethr =  1.32E-11,  avg # of iterations =  2.4

     negative rho (up, down):  1.989E-04 0.000E+00

     total cpu time spent up to now is    13467.9 secs

     End of self-consistent calculation

          k = 0.0000 0.0000 0.0000 ( 31971 PWs)   bands (ev):

   -21.8589 -20.4032 -20.4026 -19.9266 -19.9235 -19.5719 -18.5185 -18.5158
   -18.5144 -18.5127 -16.8334 -16.8228 -16.6786 -15.5865 -15.0117 -15.0090
   -15.0085 -15.0082 -13.2830 -13.2448 -13.0354 -13.0346 -13.0338 -13.0334
   -12.8949 -12.8944 -11.3506 -10.2222 -10.2197  -9.9390  -9.8697  -9.8682
    -9.6533  -9.3358  -9.0395  -9.0386  -9.0323  -9.0315  -8.8952  -8.8552
    -8.8548  -8.7293  -8.6102  -8.2320  -8.1952  -7.6908  -7.6412  -7.5425
    -7.5420  -7.2739  -6.9029  -6.7709  -6.0999  -6.0999  -6.0760  -6.0721
    -5.5723  -5.5672  -4.7063  -4.6088  -4.6002  -2.3110  -2.3080  -2.3076
    -2.3062  -0.6034  -0.1464   0.3543   0.4647   0.6697   1.4149   1.4189
     1.4317   1.4410   1.4727   1.8657

          k = 0.0000 0.0722 0.0000 ( 31929 PWs)   bands (ev):

   -21.7671 -21.0364 -19.8373 -19.8340 -19.6010 -19.5682 -19.1262 -19.1243
   -17.7507 -17.7483 -17.5350 -16.8335 -16.8228 -15.8825 -15.8805 -14.5961
   -14.4807 -14.4803 -13.6341 -13.6329 -13.2815 -13.2451 -12.3738 -12.3728
   -12.3099 -12.3084 -11.5026 -11.3460 -10.6816 -10.6796 -10.0771 -10.0759
    -9.8292  -9.6486  -9.3364  -8.9765  -8.8044  -8.7135  -8.6083  -8.5440
    -8.5436  -8.3718  -8.3714  -8.2952  -8.1063  -7.6095  -7.5427  -7.3572
    -7.2086  -6.8994  -6.8964  -6.8182  -6.7322  -6.7118  -5.9319  -5.7632
    -5.2816  -5.2751  -5.2025  -4.6168  -4.6067  -3.3243  -3.3230  -1.3253
    -1.3232  -0.0087   0.0501   0.3632   0.4373   0.5390   0.5460   0.7986
     1.2301   1.6769   1.8338   2.2113

          k = 0.0000-0.1443 0.0000 ( 31940 PWs)   bands (ev):

   -21.4986 -21.4861 -19.5893 -19.5752 -19.5726 -19.5603 -19.5458 -18.6332
   -18.6274 -16.8631 -16.8544 -16.8516 -16.8512 -16.8255 -16.8186 -14.1038
   -14.1027 -14.0955 -14.0948 -13.2809 -13.2459 -13.1042 -13.1034 -11.4980
   -11.4960 -11.4916 -11.4902 -11.3415 -11.2762 -11.2744 -11.2723 -11.2715
    -9.6441  -9.5111  -9.4993  -9.3369  -8.7336  -8.6062  -8.5413  -8.5320
    -8.2348  -8.2348  -8.2297  -8.2290  -7.4582  -7.2581  -7.2541  -7.2403
    -7.1158  -6.9241  -6.9087  -6.8944  -6.7748  -6.2629  -6.2521  -6.2390
    -6.2092  -4.6753  -4.6397  -4.3328  -4.3281  -4.3027  -4.2897  -0.3946
    -0.3900  -0.3851  -0.3823   0.2239   0.3816   0.4520   0.8108   1.1709
     1.2304   1.4892   1.5114   1.9879

          k = 0.0833 0.0000 0.0000 ( 31951 PWs)   bands (ev):

   -21.7365 -20.7645 -20.2834 -20.2828 -19.5714 -19.3322 -19.3312 -18.8641
   -17.5075 -17.5069 -16.8343 -16.8331 -16.5740 -16.2246 -15.7379 -15.4855
   -14.8351 -14.5744 -14.5739 -14.0812 -13.2524 -13.2461 -12.3591 -12.1158
   -11.6625 -11.4420 -11.4415 -11.3103 -10.1330  -9.8962  -9.8951  -9.7918
    -9.7065  -9.4034  -9.3330  -9.1105  -9.1102  -8.9351  -8.9348  -8.7663
    -8.7235  -8.6974  -8.6078  -8.0908  -8.0576  -7.9972  -7.9967  -7.6168
    -7.3310  -6.9777  -6.9365  -6.7727  -6.7594  -6.4272  -6.0454  -5.8274
    -5.1724  -5.1655  -4.6462  -4.6237  -4.5080  -3.6081  -3.3341  -1.3529
    -1.0186  -0.6457   0.0201   0.0418   0.0659   0.4207   0.4653   0.8432
     1.3899   1.6348   2.0476   2.1840

          k = 0.0833 0.0722 0.0000 ( 31951 PWs)   bands (ev):

   -21.6449 -20.9154 -20.6739 -19.9543 -19.5716 -19.4781 -18.7765 -18.5452
   -18.0871 -17.4247 -16.8388 -16.8337 -16.8182 -16.5587 -16.1885 -15.0913
   -14.6015 -14.5052 -13.9889 -13.8660 -13.2512 -13.2469 -12.1732 -12.1610
   -11.9409 -11.7291 -11.4666 -11.3061 -10.6789 -10.2941  -9.7031  -9.6863
    -9.6761  -9.6399  -9.3336  -9.3109  -9.1061  -8.8493  -8.7466  -8.7236
    -8.6997  -8.5917  -8.5147  -8.4294  -8.1115  -7.7071  -7.4754  -7.3285
    -7.2910  -7.1112  -6.7776  -6.7668  -6.3842  -6.3403  -6.0790  -6.0003
    -5.6832  -5.0661  -4.6783  -4.6198  -4.5493  -3.9724  -3.7255  -0.9910
    -0.6705  -0.4966   0.0065   0.1755   0.4225   0.4416   0.7328   0.9702
     1.3634   1.4989   1.7334   1.8859

          k = 0.0833-0.1443 0.0000 ( 31876 PWs)   bands (ev):

   -21.3768 -21.3643 -20.4091 -20.3968 -19.5705 -18.5218 -18.5182 -18.5129
   -18.5087 -17.6113 -17.6058 -16.8342 -16.8338 -16.2618 -16.2562 -15.2022
   -15.2015 -13.2505 -13.2481 -13.0377 -13.0335 -13.0332 -13.0310 -12.9599
   -12.9560 -11.3435 -11.3367 -11.3015 -10.6547 -10.6520  -9.8738  -9.8688
    -9.6983  -9.3659  -9.3572  -9.3341  -9.0416  -9.0371  -9.0331  -9.0316
    -8.7379  -8.7322  -8.2146  -8.2112  -7.5431  -7.5372  -7.3069  -7.2220
    -7.2128  -6.7878  -6.7691  -6.5612  -6.5560  -6.1019  -6.0923  -6.0818
    -6.0732  -5.0793  -5.0533  -4.6272  -4.6040  -4.0783  -4.0645  -0.8486
    -0.8370   0.3623   0.4115   0.4300   0.5177   0.5291   1.0007   1.3442
     1.3922   1.4226   1.4275   1.4360

          k =-0.1667 0.0000 0.0000 ( 31854 PWs)   bands (ev):

   -21.3749 -21.3663 -19.9292 -19.9286 -19.9216 -19.9205 -19.5676 -17.6088
   -17.6084 -16.8460 -16.8330 -16.6778 -16.6775 -16.2638 -16.2562 -15.5885
   -15.5881 -15.2044 -15.1954 -13.2479 -13.2220 -12.9598 -12.9598 -11.3383
   -11.3382 -11.2644 -10.6596 -10.6498 -10.2206 -10.2193 -10.2185 -10.2164
    -9.7723  -9.3677  -9.3570  -9.3302  -8.8941  -8.8939  -8.8604  -8.8594
    -8.8565  -8.8551  -8.8296  -8.7178  -7.7246  -7.6508  -7.6491  -7.6379
    -7.2337  -7.2251  -7.2156  -6.7672  -6.6555  -6.5587  -6.5515  -5.0864
    -5.0470  -4.7146  -4.6963  -4.6172  -4.5816  -4.0823  -4.0656  -0.8496
    -0.8299  -0.6076  -0.6056   0.4204   0.4700   0.4760   0.5124   0.5297
     0.7550   1.3434   1.3729   2.1086

          k =-0.1667 0.0722 0.0000 ( 31908 PWs)   bands (ev):

   -21.2836 -21.2751 -20.5576 -20.5492 -19.5690 -19.1311 -19.1222 -17.5267
   -17.5262 -17.0999 -17.0923 -16.9314 -16.9297 -16.8438 -16.8323 -15.1875
   -15.1873 -14.2575 -14.2492 -13.5109 -13.5107 -13.2486 -13.2209 -11.4663
   -11.4601 -11.2603 -10.7703 -10.7702 -10.5563 -10.5465  -9.7690  -9.6894
    -9.6812  -9.3311  -9.2610  -9.2512  -9.2037  -9.2015  -9.1636  -9.1633
    -8.8295  -8.7346  -8.3843  -8.3813  -7.8519  -7.8517  -7.5875  -7.5805
    -7.3139  -6.7864  -6.7284  -6.7228  -6.6417  -6.5932  -6.5889  -5.0405
    -5.0002  -4.7756  -4.7577  -4.7092  -4.6551  -4.5640  -4.5283  -0.4508
    -0.4477  -0.1949  -0.1785   0.3164   0.3361   0.4397   0.5059   0.5469
     0.8750   1.4619   1.4900   1.6030

          k =-0.1667-0.1443 0.0000 ( 31784 PWs)   bands (ev):

   -21.0156 -21.0093 -21.0053 -20.9946 -19.5687 -18.1789 -18.1741 -18.1715
   -18.1649 -17.2947 -17.2924 -17.2826 -17.2790 -16.8447 -16.8334 -14.4023
   -14.4003 -14.3940 -14.3919 -13.2495 -13.2198 -12.8677 -12.8672 -12.8598
   -12.8595 -11.2561 -10.2451 -10.2371 -10.2368 -10.2259  -9.8784  -9.8771
    -9.8645  -9.8624  -9.7649  -9.3317  -8.9734  -8.9509  -8.9345  -8.9278
    -8.7779  -8.7030  -8.3277  -8.3270  -8.3246  -8.3209  -7.3040  -7.0066
    -7.0054  -7.0034  -6.9999  -6.7893  -6.6504  -5.7083  -5.6927  -5.6865
    -5.6627  -4.9448  -4.8916  -4.8819  -4.8638  -4.6068  -4.5775  -0.0848
    -0.0778  -0.0518  -0.0473   0.4029   0.5209   0.6482   1.0257   1.1343
     1.1438   1.1485   1.1670   1.3200

          k =-0.0833 0.0722 0.0000 ( 31951 PWs)   bands (ev):

   -21.6449 -20.9154 -20.6739 -19.9543 -19.5716 -19.4781 -18.7765 -18.5452
   -18.0871 -17.4247 -16.8388 -16.8337 -16.8181 -16.5587 -16.1885 -15.0913
   -14.6014 -14.5052 -13.9890 -13.8660 -13.2512 -13.2469 -12.1733 -12.1609
   -11.9408 -11.7291 -11.4666 -11.3061 -10.6790 -10.2942  -9.7031  -9.6863
    -9.6760  -9.6398  -9.3336  -9.3109  -9.1060  -8.8493  -8.7466  -8.7237
    -8.6997  -8.5917  -8.5147  -8.4293  -8.1114  -7.7071  -7.4755  -7.3285
    -7.2911  -7.1112  -6.7776  -6.7668  -6.3844  -6.3403  -6.0791  -6.0001
    -5.6833  -5.0661  -4.6783  -4.6198  -4.5492  -3.9724  -3.7256  -0.9909
    -0.6706  -0.4968   0.0065   0.1755   0.4225   0.4416   0.7329   0.9702
     1.3634   1.4989   1.7334   1.8859

     the Fermi energy is    -2.3082 ev

!    total energy              =    -351.28203973 Ry
     Harris-Foulkes estimate   =    -351.28203973 Ry
     estimated scf accuracy    <          1.3E-09 Ry

     The total energy is the sum of the following terms:

     one-electron contribution =   -4567.43075565 Ry
     hartree contribution      =    2303.80120440 Ry
     xc contribution           =    -112.23798065 Ry
     ewald contribution        =    2024.58831301 Ry
     smearing contrib. (-TS)   =      -0.00282085 Ry

     convergence has been achieved in   4 iterations

     Forces acting on atoms (cartesian axes, Ry/au):

     atom    1 type  1   force =     0.00001626   -0.00001040    0.00001017
     atom    2 type  1   force =    -0.00000061   -0.00006974    0.00001776
     atom    3 type  1   force =     0.00000592    0.00000940    0.00002095
     atom    4 type  1   force =    -0.00002374   -0.00000243   -0.00002470
     atom    5 type  1   force =     0.00002625    0.00001946    0.00000081
     atom    6 type  1   force =    -0.00001783   -0.00001214    0.00009788
     atom    7 type  1   force =     0.00001315   -0.00000803   -0.00002105
     atom    8 type  1   force =    -0.00001434    0.00000506   -0.00000204
     atom    9 type  1   force =     0.00000837   -0.00005520   -0.00005271
     atom   10 type  1   force =    -0.00001738   -0.00002426    0.00001937
     atom   11 type  1   force =     0.00002806    0.00000685   -0.00002036
     atom   12 type  1   force =    -0.00002364   -0.00000516    0.00002355
     atom   13 type  1   force =     0.00002242    0.00001679    0.00000514
     atom   14 type  1   force =    -0.00002734    0.00000159   -0.00000647
     atom   15 type  1   force =     0.00001968    0.00000177   -0.00000285
     atom   16 type  1   force =    -0.00000876   -0.00000264   -0.00001714
     atom   17 type  1   force =    -0.00001124   -0.00000672    0.00000981
     atom   18 type  1   force =     0.00000163   -0.00002940    0.00001898
     atom   19 type  1   force =     0.00000628    0.00000564   -0.00002060
     atom   20 type  1   force =    -0.00000010   -0.00000164   -0.00002487
     atom   21 type  1   force =     0.00001056    0.00001408    0.00000117
     atom   22 type  1   force =    -0.00001362    0.00000544   -0.00000623
     atom   23 type  1   force =     0.00000133    0.00000122   -0.00000246
     atom   24 type  1   force =    -0.00000686    0.00000305   -0.00000198
     atom   25 type  1   force =    -0.00000169    0.00000146   -0.00000107
     atom   26 type  1   force =    -0.00000509    0.00002373   -0.00000334
     atom   27 type  1   force =     0.00002671    0.00001984   -0.00000064
     atom   28 type  1   force =    -0.00000966   -0.00001497    0.00000740
     atom   29 type  1   force =    -0.00000059    0.00002625    0.00000490
     atom   30 type  1   force =     0.00001944    0.00000632   -0.00000078
     atom   31 type  2   force =    -0.00000548    0.00001487   -0.00000321
     atom   32 type  2   force =     0.00000477    0.00000785   -0.00000306
     atom   33 type  2   force =    -0.00001476    0.00003043   -0.00001036
     atom   34 type  2   force =    -0.00001190    0.00000218   -0.00000095
     atom   35 type  2   force =     0.00000824   -0.00001066   -0.00000107
     atom   36 type  2   force =    -0.00000442    0.00003007   -0.00000995

     Total force =     0.000202     Total SCF correction =     0.000082
     SCF correction compared to forces is large: reduce conv_thr to get better values

     bfgs converged in  67 scf cycles and  66 bfgs steps
     (criteria: energy <  1.0E-05 Ry, force <  1.0E-04 Ry/Bohr)

     End of BFGS Geometry Optimization

     Final energy   =    -351.2820397284 Ry
Begin final coordinates

ATOMIC_POSITIONS (angstrom)
C        1.230208102   0.004593391  -0.176053960
C       -0.000029730   0.714569579  -0.176860401
C       -0.000031163   2.135208406  -0.186543419
C        1.230361902   2.844440897  -0.193038860
C        1.230291654   4.264683678  -0.186649073
C       -0.000024382   4.974581473  -0.176977279
C       -0.000031891   6.395311553  -0.169441953
C        1.230073225   7.105371569  -0.170742116
C        3.689967809   0.005001659  -0.185136084
C        2.460360458   0.714802572  -0.189669381
C        2.460467919   2.134811760  -0.200532350
C        3.689977875   2.844403734  -0.205600010
C        3.689965829   4.264379734  -0.199376752
C        2.460615355   4.974340687  -0.188696675
C        2.460363254   6.394958768  -0.176659296
C        3.689972802   7.105816483  -0.176457735
C        6.149731322   0.004592076  -0.176053164
C        4.919583629   0.714803370  -0.189668385
C        4.919464946   2.134811499  -0.200532150
C        6.149585724   2.844440806  -0.193040171
C        6.149639638   4.264685149  -0.186652269
C        4.919337715   4.974340109  -0.188699939
C        4.919573327   6.394959261  -0.176661512
C        6.149874374   7.105371947  -0.170743117
C        4.387352654   1.623144124   3.374116674
C        2.992708578   1.623168012   3.374129051
C        2.296723629   2.832638729   3.374358537
C        2.992439670   4.041292722   3.373829882
C        4.387739183   4.041251976   3.373829532
C        5.083378957   2.832579464   3.374345008
H        4.931956001   0.682721585   3.365770973
H        2.448061789   0.682776739   3.365791383
H        1.210946425   2.832495129   3.366945927
H        2.448279996   4.981990240   3.365225076
H        4.931940977   4.981937703   3.365225181
H        6.169172448   2.832383045   3.366918827
End final coordinates



     Writing output data file batch_graph+benzene.save/

     init_run     :     19.95s CPU     20.27s WALL (       1 calls)
     electrons    :  12311.18s CPU  12464.89s WALL (      67 calls)
     update_pot   :    233.07s CPU    238.14s WALL (      66 calls)
     forces       :    697.50s CPU    704.13s WALL (      67 calls)

     Called by init_run:
     wfcinit      :     15.64s CPU     15.80s WALL (       1 calls)
     potinit      :      2.36s CPU      2.47s WALL (       1 calls)
     hinit0       :      1.12s CPU      1.13s WALL (       1 calls)

     Called by electrons:
     c_bands      :  10225.72s CPU  10313.11s WALL (     395 calls)
     sum_band     :   1301.50s CPU   1328.55s WALL (     395 calls)
     v_of_rho     :    663.81s CPU    694.31s WALL (     424 calls)
     newd         :    237.86s CPU    250.88s WALL (     424 calls)
     mix_rho      :     13.21s CPU     13.60s WALL (     395 calls)

     Called by c_bands:
     init_us_2    :     40.91s CPU     41.05s WALL (    8580 calls)
     cegterg      :  10129.84s CPU  10216.88s WALL (    3950 calls)

     Called by sum_band:
     sum_band:bec :      1.53s CPU      1.54s WALL (    3950 calls)
     addusdens    :    178.16s CPU    190.32s WALL (     395 calls)

     Called by *egterg:
     h_psi        :   5187.41s CPU   5261.36s WALL (   14050 calls)
     s_psi        :   1541.12s CPU   1544.84s WALL (   14050 calls)
     g_psi        :      8.11s CPU      8.16s WALL (   10090 calls)
     cdiaghg      :    335.99s CPU    336.84s WALL (   13000 calls)

     Called by h_psi:
     h_psi:pot    :   5175.43s CPU   5249.30s WALL (   14050 calls)
     h_psi:calbec :   1652.79s CPU   1658.12s WALL (   14050 calls)
     vloc_psi     :   1980.98s CPU   2045.85s WALL (   14050 calls)
     add_vuspsi   :   1541.58s CPU   1545.29s WALL (   14050 calls)

     General routines
     calbec       :   2749.12s CPU   2757.70s WALL (   20680 calls)
     fft          :    418.71s CPU    434.40s WALL (   26816 calls)
     ffts         :      2.00s CPU      2.08s WALL (     819 calls)
     fftw         :   2237.31s CPU   2311.81s WALL ( 1813148 calls)
     interpolate  :      8.23s CPU      8.51s WALL (     424 calls)

     Parallel routines
     fft_scatt_xy :    241.16s CPU    250.32s WALL ( 1840783 calls)
     fft_scatt_yz :    399.23s CPU    430.22s WALL ( 1840783 calls)

     PWSCF        :      3h41m CPU      3h44m WALL


   This run was terminated on:  15:25:46   2Dec2020            

=------------------------------------------------------------------------------=
   JOB DONE.
=------------------------------------------------------------------------------=
