
     Program PWSCF v.6.4.1 starts on 18Jan2021 at 19:56:26 

     This program is part of the open-source Quantum ESPRESSO suite
     for quantum simulation of materials; please cite
         "P. Giannozzi et al., J. Phys.:Condens. Matter 21 395502 (2009);
         "P. Giannozzi et al., J. Phys.:Condens. Matter 29 465901 (2017);
          URL http://www.quantum-espresso.org", 
     in publications or presentations arising from this work. More details at
     http://www.quantum-espresso.org/quote

     Parallel version (MPI), running on    16 processors

     MPI processes distributed on     1 nodes
     R & G space division:  proc/nbgrp/npool/nimage =      16
     Waiting for input...
     Reading input from standard input

     Current dimensions of program PWSCF are:
     Max number of different atomic species (ntypx) = 10
     Max number of k-points (npk) =  40000
     Max angular momentum in pseudopotentials (lmaxx) =  3

     Atomic positions and unit cell read from directory:
     out/iPr.save/

     Message from routine readpp:
     file out/iPr.save/C.pbe-n-kjpaw_psl.1.0.0.UPF not found
     Message from routine readpp:
     file out/iPr.save/H.pbe-kjpaw_psl.1.0.0.UPF not found
     Message from routine readpp:
     file out/iPr.save/N.pbe-n-kjpaw_psl.1.0.0.UPF not found
     Message from routine readpp:
     file out/iPr.save/Au.pbe-n-kjpaw_psl.1.0.0.UPF not found
               file C.pbe-n-kjpaw_psl.1.0.0.UPF: wavefunction(s)  2S 2P renormalized
               file H.pbe-kjpaw_psl.1.0.0.UPF: wavefunction(s)  1S renormalized
               file N.pbe-n-kjpaw_psl.1.0.0.UPF: wavefunction(s)  2S renormalized
               file Au.pbe-n-kjpaw_psl.1.0.0.UPF: wavefunction(s)  6S 5D renormalized

     Subspace diagonalization in iterative solution of the eigenvalue problem:
     a serial algorithm will be used


     Parallelization info
     --------------------
     sticks:   dense  smooth     PW     G-vecs:    dense   smooth      PW
     Min        5116    2046    512              1100856   278420   34791
     Max        5117    2047    513              1100859   278422   34792
     Sum       81861   32745   8197             17613727  4454733  556667



     bravais-lattice index     =            0
     lattice parameter (alat)  =      56.6918  a.u.
     unit-cell volume          =  182205.0337 (a.u.)^3
     number of atoms/cell      =           67
     number of atomic types    =            4
     number of electrons       =       171.00
     number of Kohn-Sham states=          103
     kinetic-energy cutoff     =      32.0000  Ry
     charge density cutoff     =     320.0000  Ry
     convergence threshold     =      1.0E-06
     mixing beta               =       0.5000
     number of iterations used =            8  plain     mixing
     Exchange-correlation      = SLA PW PBX PBC ( 1  4  3  4 0 0)
     nstep                     =           50


     celldm(1)=  56.691784  celldm(2)=   0.000000  celldm(3)=   0.000000
     celldm(4)=   0.000000  celldm(5)=   0.000000  celldm(6)=   0.000000

     crystal axes: (cart. coord. in units of alat)
               a(1) = (   1.000000   0.000000   0.000000 )  
               a(2) = (   0.000000   1.000000   0.000000 )  
               a(3) = (   0.000000   0.000000   1.000000 )  

     reciprocal axes: (cart. coord. in units 2 pi/alat)
               b(1) = (  1.000000  0.000000  0.000000 )  
               b(2) = (  0.000000  1.000000  0.000000 )  
               b(3) = (  0.000000  0.000000  1.000000 )  


     PseudoPot. # 1 for C  read from file:
     ./pseudos/C.pbe-n-kjpaw_psl.1.0.0.UPF
     MD5 check sum: 5f16ad9a65e90284d1d834d4ab3b0f7d
     Pseudo is Projector augmented-wave + core cor, Zval =  4.0
     Generated using "atomic" code by A. Dal Corso v.6.3
     Shape of augmentation charge: PSQ
     Using radial grid of 1073 points,  4 beta functions with: 
                l(1) =   0
                l(2) =   0
                l(3) =   1
                l(4) =   1
     Q(r) pseudized with 0 coefficients 


     PseudoPot. # 2 for H  read from file:
     ./pseudos/H.pbe-kjpaw_psl.1.0.0.UPF
     MD5 check sum: d81a744832360e4a8af0b0b5b123bc2a
     Pseudo is Projector augmented-wave, Zval =  1.0
     Generated using "atomic" code by A. Dal Corso v.6.3MaX
     Shape of augmentation charge: PSQ
     Using radial grid of  929 points,  2 beta functions with: 
                l(1) =   0
                l(2) =   0
     Q(r) pseudized with 0 coefficients 


     PseudoPot. # 3 for N  read from file:
     ./pseudos/N.pbe-n-kjpaw_psl.1.0.0.UPF
     MD5 check sum: 14c48229446f9f2d411169a3abcbc3fa
     Pseudo is Projector augmented-wave + core cor, Zval =  5.0
     Generated using "atomic" code by A. Dal Corso v.6.3
     Shape of augmentation charge: PSQ
     Using radial grid of 1085 points,  4 beta functions with: 
                l(1) =   0
                l(2) =   0
                l(3) =   1
                l(4) =   1
     Q(r) pseudized with 0 coefficients 


     PseudoPot. # 4 for Au read from file:
     ./pseudos/Au.pbe-n-kjpaw_psl.1.0.0.UPF
     MD5 check sum: 4db85c736373c707a97ce4c36c2a9d23
     Pseudo is Projector augmented-wave + core cor, Zval = 11.0
     Generated using "atomic" code by A. Dal Corso v.6.3
     Shape of augmentation charge: PSQ
     Using radial grid of 1279 points,  6 beta functions with: 
                l(1) =   0
                l(2) =   0
                l(3) =   1
                l(4) =   1
                l(5) =   2
                l(6) =   2
     Q(r) pseudized with 0 coefficients 


     atomic species   valence    mass     pseudopotential
        C              4.00    12.01070     C ( 1.00)
        H              1.00     1.00784     H ( 1.00)
        N              5.00    14.00670     N ( 1.00)
        Au            11.00   196.96657     Au( 1.00)

     No symmetry found



   Cartesian axes

     site n.     atom                  positions (alat units)
         1           Au  tau(   1) = (   0.3429394   0.1961037   0.4799088  )
         2           C   tau(   2) = (   0.4754695   0.2444069   0.4615261  )
         3           C   tau(   3) = (   0.4521552   0.2854602   0.4614626  )
         4           C   tau(   4) = (   0.4743267   0.3256559   0.4521018  )
         5           C   tau(   5) = (   0.5202304   0.3237690   0.4430884  )
         6           C   tau(   6) = (   0.5432460   0.2832708   0.4432007  )
         7           C   tau(   7) = (   0.5213723   0.2428815   0.4522919  )
         8           C   tau(   8) = (   0.4019120   0.2298156   0.4764718  )
         9           C   tau(   9) = (   0.3714789   0.3077461   0.4797625  )
        10           C   tau(  10) = (   0.4531853   0.1637052   0.4797638  )
        11           C   tau(  11) = (   0.4836614   0.1575637   0.5205084  )
        12           C   tau(  12) = (   0.3584278   0.3345788   0.4381641  )
        13           C   tau(  13) = (   0.3820575   0.3370941   0.5204232  )
        14           C   tau(  14) = (   0.4696067   0.1387496   0.4381863  )
        15           C   tau(  15) = (   0.2348040   0.1054880   0.4616159  )
        16           C   tau(  16) = (   0.2108739   0.1461858   0.4615318  )
        17           C   tau(  17) = (   0.1649249   0.1470077   0.4524413  )
        18           C   tau(  18) = (   0.1436403   0.1062386   0.4436442  )
        19           C   tau(  19) = (   0.1672517   0.0660800   0.4437260  )
        20           C   tau(  20) = (   0.2132006   0.0649104   0.4526239  )
        21           C   tau(  21) = (   0.2842129   0.1619569   0.4762842  )
        22           C   tau(  22) = (   0.2319636   0.2272375   0.4796453  )
        23           C   tau(  23) = (   0.3158678   0.0845680   0.4797960  )
        24           C   tau(  24) = (   0.3062453   0.0557874   0.5210905  )
        25           C   tau(  25) = (   0.2143933   0.2518902   0.4383601  )
        26           C   tau(  26) = (   0.2020791   0.2328126   0.5209087  )
        27           C   tau(  27) = (   0.3288906   0.0572085   0.4385276  )
        28           H   tau(  28) = (   0.4568591   0.3574870   0.4507960  )
        29           H   tau(  29) = (   0.5380638   0.3545483   0.4350324  )
        30           H   tau(  30) = (   0.5788414   0.2828271   0.4352618  )
        31           H   tau(  31) = (   0.5398261   0.2116037   0.4511739  )
        32           H   tau(  32) = (   0.3428960   0.2864628   0.4886382  )
        33           H   tau(  33) = (   0.4202166   0.1500982   0.4885105  )
        34           H   tau(  34) = (   0.5176009   0.1700482   0.5144945  )
        35           H   tau(  35) = (   0.4862266   0.1219454   0.5290510  )
        36           H   tau(  36) = (   0.4700283   0.1751884   0.5496187  )
        37           H   tau(  37) = (   0.3851224   0.3570688   0.4269463  )
        38           H   tau(  38) = (   0.3288807   0.3552540   0.4452811  )
        39           H   tau(  39) = (   0.3500320   0.3121738   0.4104109  )
        40           H   tau(  40) = (   0.3528239   0.3575097   0.5291962  )
        41           H   tau(  41) = (   0.4100733   0.3599045   0.5141983  )
        42           H   tau(  42) = (   0.5027540   0.1499015   0.4271729  )
        43           H   tau(  43) = (   0.3904707   0.3163816   0.5494730  )
        44           H   tau(  44) = (   0.4718925   0.1027471   0.4452488  )
        45           H   tau(  45) = (   0.4462547   0.1432431   0.4103094  )
        46           H   tau(  46) = (   0.1460314   0.1780165   0.4512458  )
        47           H   tau(  47) = (   0.1080100   0.1060848   0.4358452  )
        48           H   tau(  48) = (   0.1498376   0.0349886   0.4359616  )
        49           H   tau(  49) = (   0.2311177   0.0333206   0.4515760  )
        50           H   tau(  50) = (   0.2648307   0.2414294   0.4878319  )
        51           H   tau(  51) = (   0.3442486   0.1064044   0.4879571  )
        52           H   tau(  52) = (   0.2782881   0.0326858   0.5157308  )
        53           H   tau(  53) = (   0.3358158   0.0357579   0.5296190  )
        54           H   tau(  54) = (   0.2982261   0.0769036   0.5499636  )
        55           H   tau(  55) = (   0.1812836   0.2401512   0.4278702  )
        56           H   tau(  56) = (   0.2115782   0.2878358   0.4455098  )
        57           H   tau(  57) = (   0.2373549   0.2478370   0.4100949  )
        58           H   tau(  58) = (   0.1989870   0.2683872   0.5294604  )
        59           H   tau(  59) = (   0.1682745   0.2196869   0.5154982  )
        60           H   tau(  60) = (   0.3026049   0.0338523   0.4281532  )
        61           H   tau(  61) = (   0.2165518   0.2154921   0.5497957  )
        62           H   tau(  62) = (   0.3590417   0.0374154   0.4456276  )
        63           H   tau(  63) = (   0.3363436   0.0792303   0.4102044  )
        64           N   tau(  64) = (   0.4440754   0.2114561   0.4711932  )
        65           N   tau(  65) = (   0.4077638   0.2754102   0.4711301  )
        66           N   tau(  66) = (   0.2790586   0.1162610   0.4710814  )
        67           N   tau(  67) = (   0.2417904   0.1796574   0.4709633  )

     number of k points=     1  gaussian smearing, width (Ry)=  0.0200
                       cart. coord. in units 2pi/alat
        k(    1) = (   0.0000000   0.0000000   0.0000000), wk =   2.0000000

     Dense  grid: 17613727 G-vectors     FFT dimensions: ( 324, 324, 324)

     Smooth grid:  4454733 G-vectors     FFT dimensions: ( 216, 216, 216)

     Estimated max dynamical RAM per process >       7.29 GB

     Estimated total dynamical RAM >     116.58 GB

     The initial density is read from file :
     out/iPr.save/charge-density


     negative rho (up, down):  2.449E-02 0.000E+00
     Starting wfcs from file
     Checking if some PAW data can be deallocated... 

     total cpu time spent up to now is       54.1 secs

     Self-consistent Calculation

     iteration #  1     ecut=    32.00 Ry     beta= 0.50
     Davidson diagonalization with overlap
     ethr =  1.00E-05,  avg # of iterations = 15.0

     negative rho (up, down):  2.456E-02 0.000E+00

     total cpu time spent up to now is      256.1 secs

     total energy              =   -1409.63961930 Ry
     Harris-Foulkes estimate   =   -1409.64988716 Ry
     estimated scf accuracy    <       0.01522357 Ry

     iteration #  2     ecut=    32.00 Ry     beta= 0.50
     Davidson diagonalization with overlap
     ethr =  8.90E-06,  avg # of iterations = 14.0

     negative rho (up, down):  2.470E-02 0.000E+00

     total cpu time spent up to now is      432.1 secs

     total energy              =   -1409.64253521 Ry
     Harris-Foulkes estimate   =   -1409.64875493 Ry
     estimated scf accuracy    <       0.01515306 Ry

     iteration #  3     ecut=    32.00 Ry     beta= 0.50
     Davidson diagonalization with overlap
     ethr =  8.86E-06,  avg # of iterations =  5.0

     negative rho (up, down):  2.455E-02 0.000E+00

     total cpu time spent up to now is      580.8 secs

     total energy              =   -1409.64549238 Ry
     Harris-Foulkes estimate   =   -1409.64564354 Ry
     estimated scf accuracy    <       0.00036173 Ry

     iteration #  4     ecut=    32.00 Ry     beta= 0.50
     Davidson diagonalization with overlap
     ethr =  2.12E-07,  avg # of iterations =  4.0

     negative rho (up, down):  2.450E-02 0.000E+00

     total cpu time spent up to now is      738.9 secs

     total energy              =   -1409.64558025 Ry
     Harris-Foulkes estimate   =   -1409.64558906 Ry
     estimated scf accuracy    <       0.00001991 Ry

     iteration #  5     ecut=    32.00 Ry     beta= 0.50
     Davidson diagonalization with overlap
     ethr =  1.16E-08,  avg # of iterations =  4.0

     negative rho (up, down):  2.450E-02 0.000E+00

     total cpu time spent up to now is      894.4 secs

     total energy              =   -1409.64558163 Ry
     Harris-Foulkes estimate   =   -1409.64558746 Ry
     estimated scf accuracy    <       0.00001748 Ry

     iteration #  6     ecut=    32.00 Ry     beta= 0.50
     Davidson diagonalization with overlap
     ethr =  1.02E-08,  avg # of iterations =  4.0

     negative rho (up, down):  2.450E-02 0.000E+00

     total cpu time spent up to now is     1029.0 secs

     total energy              =   -1409.64558470 Ry
     Harris-Foulkes estimate   =   -1409.64558544 Ry
     estimated scf accuracy    <       0.00000300 Ry

     iteration #  7     ecut=    32.00 Ry     beta= 0.50
     Davidson diagonalization with overlap
     ethr =  1.75E-09,  avg # of iterations =  4.0

     negative rho (up, down):  2.450E-02 0.000E+00

     total cpu time spent up to now is     1164.4 secs

     End of self-consistent calculation

          k = 0.0000 0.0000 0.0000 (556667 PWs)   bands (ev):

   -25.4070 -25.3984 -22.9105 -22.9077 -20.7727 -20.7652 -19.8946 -19.8866
   -19.0060 -18.9980 -18.0913 -18.0414 -18.0374 -18.0354 -17.0092 -17.0043
   -17.0017 -16.9972 -15.9434 -15.9351 -15.3199 -15.3168 -15.2542 -15.0942
   -13.9746 -13.9256 -13.7804 -13.7735 -12.3926 -12.3676 -12.3358 -12.2576
   -11.7266 -11.6734 -11.3234 -11.2750 -11.1603 -10.9368 -10.9031 -10.8022
   -10.7371 -10.7228 -10.4048 -10.3973 -10.3336 -10.3105 -10.1826 -10.1600
    -9.9840  -9.7023  -9.6950  -9.4410  -9.4181  -9.3809  -9.3787  -9.2306
    -9.2291  -8.9476  -8.9375  -8.6445  -8.6438  -8.5925  -8.5612  -8.5481
    -8.4617  -8.4539  -8.4452  -8.1212  -8.0412  -7.9157  -7.9048  -7.8092
    -7.6946  -7.0867  -7.0222  -7.0186  -6.9109  -6.8439  -6.4830  -6.4179
    -5.7777  -5.5475  -5.3615  -5.3581  -5.1877  -1.8466  -1.1654  -0.8710
    -0.7350  -0.4925  -0.4183  -0.4141  -0.3954  -0.3345  -0.2971  -0.2358
    -0.2210  -0.1394  -0.0704  -0.0416  -0.0287   0.0021   0.0060

     the Fermi energy is    -1.8467 ev

!    total energy              =   -1409.64558505 Ry
     Harris-Foulkes estimate   =   -1409.64558516 Ry
     estimated scf accuracy    <       0.00000018 Ry

     total all-electron energy =    -40485.553240 Ry

     The total energy is the sum of the following terms:

     one-electron contribution =   -4735.03859452 Ry
     hartree contribution      =    2394.84218080 Ry
     xc contribution           =    -200.78970942 Ry
     ewald contribution        =    2016.05638633 Ry
     one-center paw contrib.   =    -884.70454307 Ry
     smearing contrib. (-TS)   =      -0.01130517 Ry

     convergence has been achieved in   7 iterations

     negative rho (up, down):  2.450E-02 0.000E+00

     Forces acting on atoms (cartesian axes, Ry/au):

     atom    1 type  4   force =    -0.00004616   -0.00016321   -0.00092830
     atom    2 type  1   force =    -0.00086677   -0.00162322    0.00036459
     atom    3 type  1   force =    -0.00194348    0.00013452    0.00030833
     atom    4 type  1   force =    -0.00191037   -0.00277688    0.00021753
     atom    5 type  1   force =    -0.00133346   -0.00050975   -0.00107470
     atom    6 type  1   force =    -0.00109881   -0.00086288   -0.00107571
     atom    7 type  1   force =    -0.00319222   -0.00009911    0.00026758
     atom    8 type  1   force =    -0.00375494   -0.00221115    0.00119220
     atom    9 type  1   force =     0.00148041    0.00095781   -0.00061757
     atom   10 type  1   force =     0.00169184    0.00074934   -0.00061043
     atom   11 type  1   force =    -0.00075163    0.00046563   -0.00181889
     atom   12 type  1   force =     0.00116427   -0.00126553    0.00037880
     atom   13 type  1   force =     0.00005005   -0.00099632   -0.00180318
     atom   14 type  1   force =    -0.00045336    0.00171477    0.00034764
     atom   15 type  1   force =     0.00179551   -0.00005258    0.00039118
     atom   16 type  1   force =     0.00071262    0.00173909    0.00038333
     atom   17 type  1   force =     0.00336579    0.00017899    0.00042177
     atom   18 type  1   force =     0.00112539    0.00091515   -0.00086918
     atom   19 type  1   force =     0.00120585    0.00055280   -0.00085125
     atom   20 type  1   force =     0.00173173    0.00262135    0.00031917
     atom   21 type  1   force =     0.00368248    0.00221719    0.00132333
     atom   22 type  1   force =    -0.00159242   -0.00067760   -0.00046579
     atom   23 type  1   force =    -0.00152237   -0.00101952   -0.00053586
     atom   24 type  1   force =    -0.00002078    0.00083208   -0.00184101
     atom   25 type  1   force =     0.00063089   -0.00163287    0.00030365
     atom   26 type  1   force =     0.00084347   -0.00041074   -0.00175213
     atom   27 type  1   force =    -0.00120282    0.00144204    0.00021943
     atom   28 type  2   force =    -0.00091707   -0.00074944    0.00198150
     atom   29 type  2   force =    -0.00149616   -0.00173315    0.00171462
     atom   30 type  2   force =    -0.00224318   -0.00044600    0.00164409
     atom   31 type  2   force =    -0.00122627   -0.00047441    0.00188060
     atom   32 type  2   force =     0.00034759   -0.00348631   -0.00023774
     atom   33 type  2   force =    -0.00290116    0.00207058   -0.00021433
     atom   34 type  2   force =     0.00011437    0.00081244   -0.00087236
     atom   35 type  2   force =    -0.00081321    0.00089861   -0.00208854
     atom   36 type  2   force =    -0.00066448    0.00037469   -0.00053881
     atom   37 type  2   force =     0.00109725   -0.00053691    0.00066596
     atom   38 type  2   force =     0.00225896   -0.00209971    0.00174116
     atom   39 type  2   force =     0.00052977   -0.00115867   -0.00023365
     atom   40 type  2   force =     0.00029208   -0.00130217   -0.00218733
     atom   41 type  2   force =     0.00079799   -0.00042903   -0.00088077
     atom   42 type  2   force =     0.00005445    0.00132610    0.00076185
     atom   43 type  2   force =    -0.00004800   -0.00083283   -0.00044909
     atom   44 type  2   force =    -0.00052722    0.00304763    0.00168363
     atom   45 type  2   force =    -0.00075959    0.00111556   -0.00026446
     atom   46 type  2   force =     0.00106498    0.00042912    0.00190174
     atom   47 type  2   force =     0.00234443    0.00055620    0.00156702
     atom   48 type  2   force =     0.00146275    0.00177316    0.00165353
     atom   49 type  2   force =     0.00092125    0.00077602    0.00184809
     atom   50 type  2   force =     0.00289741   -0.00184735   -0.00026021
     atom   51 type  2   force =    -0.00034290    0.00345556   -0.00027249
     atom   52 type  2   force =    -0.00078106    0.00029003   -0.00093519
     atom   53 type  2   force =    -0.00046142    0.00104398   -0.00201940
     atom   54 type  2   force =    -0.00002537    0.00079681   -0.00055621
     atom   55 type  2   force =    -0.00003529   -0.00122394    0.00083629
     atom   56 type  2   force =     0.00063023   -0.00297801    0.00155089
     atom   57 type  2   force =     0.00083937   -0.00101505   -0.00028594
     atom   58 type  2   force =     0.00074816   -0.00086416   -0.00196893
     atom   59 type  2   force =     0.00007532   -0.00088867   -0.00104080
     atom   60 type  2   force =    -0.00108019    0.00053604    0.00075067
     atom   61 type  2   force =     0.00075168   -0.00038724   -0.00062533
     atom   62 type  2   force =    -0.00237072    0.00200228    0.00160326
     atom   63 type  2   force =    -0.00048015    0.00118955   -0.00024065
     atom   64 type  3   force =     0.00369594   -0.00132956    0.00004392
     atom   65 type  3   force =     0.00075802    0.00364610   -0.00004899
     atom   66 type  3   force =    -0.00073093   -0.00378809    0.00011478
     atom   67 type  3   force =    -0.00356833    0.00121084    0.00008313

     Total force =     0.020307     Total SCF correction =     0.000875

     number of scf cycles    =   5
     number of bfgs steps    =   4

     energy   old            =   -1409.6448913072 Ry
     energy   new            =   -1409.6455850475 Ry

     CASE: energy  _new < energy  _old

     new trust radius        =       0.0098419249 bohr
     new conv_thr            =       0.0000000379 Ry


ATOMIC_POSITIONS (angstrom)
Au      10.288228031   5.882793232  14.395120885
C       14.261183418   7.331018684  13.846740699
C       13.562019631   8.561971698  13.844787013
C       14.227423019   9.766880647  13.563106257
C       15.604637471   9.711900245  13.290906843
C       16.295283734   8.496773694  13.294393122
C       15.637653863   7.285925246  13.568866909
C       12.053888393   6.892458733  14.295435165
C       11.146780414   9.230984108  14.391878122
C       13.595643580   4.913852591  14.391944752
C       14.509302624   4.727710232  15.612988290
C       10.754845017  10.035504380  13.145259873
C       11.462169719  10.111766428  15.610436705
C       14.087623672   4.165236145  13.145864094
C        7.046570956   3.166529624  13.849445797
C        6.329021870   4.386927577  13.846924124
C        4.951342748   4.410802620  13.573586008
C        4.311318333   3.188533682  13.307975881
C        5.019719789   1.983564254  13.310347324
C        6.398251542   1.949995033  13.578957206
C        8.529650635   4.860741735  14.290125830
C        6.958929487   6.814543862  14.388412279
C        9.473591280   2.538347350  14.392892376
C        9.186935657   1.674453180  15.630455876
C        6.432559162   7.554064467  13.151007887
C        6.063078287   6.983670136  15.625037719
C        9.864677901   1.718249485  13.155976726
H       13.705381697  10.722820821  13.526564449
H       16.140914304  10.635066116  13.053199398
H       17.363579765   8.484577410  13.059956214
H       16.192843856   6.348671631  13.537750325
H       10.290490823   8.590367939  14.657926448
H       12.605268246   4.507858155  14.654102588
H       15.527838535   5.102380163  15.433910255
H       14.585850730   3.659325760  15.869239757
H       14.100234201   5.255467511  16.486699654
H       11.554940616  10.711560247  12.809482671
H        9.869068480  10.655240559  13.360679949
H       10.501600234   9.363815925  12.312741008
H       10.585023799  10.723737322  15.873445169
H       12.302930737  10.796301765  15.425006234
H       15.082813374   4.498511547  12.816434612
H       11.713594555   9.490953680  16.482452478
H       14.156277932   3.085993275  13.359639823
H       13.386684359   4.298652663  12.309638700
H        4.382659841   5.339870481  13.539925778
H        3.242121649   3.182920479  13.077343278
H        4.496114731   1.051110784  13.080987948
H        6.933887053   1.001434795  13.549754137
H        7.946169405   7.238271786  14.633790090
H       10.323832200   3.195496541  14.637496189
H        8.347963662   0.981209519  15.470892790
H       10.073979869   1.073864523  15.886387613
H        8.947189836   2.307563298  16.497018643
H        5.438361293   7.203221258  12.837518503
H        6.347938237   8.631622367  13.367301543
H        7.121790320   7.433873919  12.303136454
H        5.970450699   8.050696440  15.881690868
H        5.048766478   6.589584898  15.463766808
H        9.076945244   1.016013934  12.845891774
H        6.497242221   6.464872803  16.491956363
H       10.768405096   1.124663127  13.370888022
H       10.089819280   2.378513253  12.306405563
N       13.321036320   6.343369187  14.136957836
N       12.231962361   8.261355219  14.134960370
N        8.372595933   3.488747214  14.133605635
N        7.254935525   5.390127831  14.130073659



     Writing output data file iPr.save/
     Message from routine punch:
     wavefunctions written to file
     NEW-OLD atomic charge density approx. for the potential

     negative rho (up, down):  2.450E-02 0.000E+00

     total cpu time spent up to now is     1319.7 secs

     Self-consistent Calculation

     iteration #  1     ecut=    32.00 Ry     beta= 0.50
     Davidson diagonalization with overlap
     ethr =  1.00E-06,  avg # of iterations =  3.0

     negative rho (up, down):  2.450E-02 0.000E+00

     total cpu time spent up to now is     1508.6 secs

     total energy              =   -1409.64613135 Ry
     Harris-Foulkes estimate   =   -1409.64658230 Ry
     estimated scf accuracy    <       0.00019036 Ry

     iteration #  2     ecut=    32.00 Ry     beta= 0.50
     Davidson diagonalization with overlap
     ethr =  1.11E-07,  avg # of iterations =  3.0

     negative rho (up, down):  2.450E-02 0.000E+00

     total cpu time spent up to now is     1662.7 secs

     total energy              =   -1409.64615806 Ry
     Harris-Foulkes estimate   =   -1409.64617264 Ry
     estimated scf accuracy    <       0.00003874 Ry

     iteration #  3     ecut=    32.00 Ry     beta= 0.50
     Davidson diagonalization with overlap
     ethr =  2.27E-08,  avg # of iterations =  3.0

     negative rho (up, down):  2.450E-02 0.000E+00

     total cpu time spent up to now is     1815.2 secs

     total energy              =   -1409.64616340 Ry
     Harris-Foulkes estimate   =   -1409.64616694 Ry
     estimated scf accuracy    <       0.00001129 Ry

     iteration #  4     ecut=    32.00 Ry     beta= 0.50
     Davidson diagonalization with overlap
     ethr =  6.60E-09,  avg # of iterations =  4.0

     negative rho (up, down):  2.450E-02 0.000E+00

     total cpu time spent up to now is     1961.9 secs

     total energy              =   -1409.64616438 Ry
     Harris-Foulkes estimate   =   -1409.64616617 Ry
     estimated scf accuracy    <       0.00000501 Ry

     iteration #  5     ecut=    32.00 Ry     beta= 0.50
     Davidson diagonalization with overlap
     ethr =  2.93E-09,  avg # of iterations =  5.0

     negative rho (up, down):  2.450E-02 0.000E+00

     total cpu time spent up to now is     2100.3 secs

     total energy              =   -1409.64616520 Ry
     Harris-Foulkes estimate   =   -1409.64616587 Ry
     estimated scf accuracy    <       0.00000244 Ry

     iteration #  6     ecut=    32.00 Ry     beta= 0.50
     Davidson diagonalization with overlap
     ethr =  1.43E-09,  avg # of iterations =  4.0

     negative rho (up, down):  2.450E-02 0.000E+00

     total cpu time spent up to now is     2234.5 secs

     total energy              =   -1409.64616553 Ry
     Harris-Foulkes estimate   =   -1409.64616557 Ry
     estimated scf accuracy    <       0.00000010 Ry

     iteration #  7     ecut=    32.00 Ry     beta= 0.50
     Davidson diagonalization with overlap
     ethr =  5.67E-11,  avg # of iterations =  4.0

     negative rho (up, down):  2.450E-02 0.000E+00

     total cpu time spent up to now is     2386.0 secs

     End of self-consistent calculation

          k = 0.0000 0.0000 0.0000 (556667 PWs)   bands (ev):

   -25.4187 -25.4100 -22.9324 -22.9297 -20.7767 -20.7691 -19.9037 -19.8957
   -19.0097 -19.0018 -18.0980 -18.0471 -18.0367 -18.0345 -17.0096 -17.0047
   -17.0022 -16.9977 -15.9580 -15.9494 -15.3304 -15.3276 -15.2670 -15.1039
   -13.9759 -13.9275 -13.7748 -13.7682 -12.3989 -12.3731 -12.3333 -12.2542
   -11.7280 -11.6750 -11.3387 -11.2851 -11.1732 -10.9431 -10.9092 -10.8092
   -10.7391 -10.7249 -10.4130 -10.4055 -10.3322 -10.3094 -10.1781 -10.1558
   -10.0089  -9.7031  -9.6959  -9.4383  -9.4156  -9.3815  -9.3780  -9.2271
    -9.2256  -8.9505  -8.9390  -8.6521  -8.6516  -8.5940  -8.5591  -8.5461
    -8.4617  -8.4522  -8.4448  -8.1250  -8.0378  -7.9117  -7.9003  -7.8035
    -7.6866  -7.0955  -7.0235  -7.0207  -6.9275  -6.8686  -6.4976  -6.4314
    -5.7861  -5.5505  -5.3590  -5.3556  -5.1852  -1.8592  -1.1673  -0.8756
    -0.7333  -0.4912  -0.4180  -0.4141  -0.3944  -0.3359  -0.2965  -0.2357
    -0.2205  -0.1393  -0.0702  -0.0405  -0.0285   0.0021   0.0058

     the Fermi energy is    -1.8593 ev

!    total energy              =   -1409.64616555 Ry
     Harris-Foulkes estimate   =   -1409.64616556 Ry
     estimated scf accuracy    <       0.00000003 Ry

     total all-electron energy =    -40485.553821 Ry

     The total energy is the sum of the following terms:

     one-electron contribution =   -4738.50299476 Ry
     hartree contribution      =    2396.56934391 Ry
     xc contribution           =    -200.81969046 Ry
     ewald contribution        =    2017.82433824 Ry
     one-center paw contrib.   =    -884.70586113 Ry
     smearing contrib. (-TS)   =      -0.01130135 Ry

     convergence has been achieved in   7 iterations

     negative rho (up, down):  2.450E-02 0.000E+00

     Forces acting on atoms (cartesian axes, Ry/au):

     atom    1 type  4   force =    -0.00008068    0.00001795   -0.00010361
     atom    2 type  1   force =     0.00043309   -0.00081336   -0.00017765
     atom    3 type  1   force =    -0.00061077    0.00065683   -0.00022587
     atom    4 type  1   force =    -0.00076596   -0.00124574   -0.00008897
     atom    5 type  1   force =    -0.00186974   -0.00194222   -0.00023841
     atom    6 type  1   force =    -0.00252044   -0.00048251   -0.00034926
     atom    7 type  1   force =    -0.00138454    0.00004583    0.00001547
     atom    8 type  1   force =     0.00070863    0.00020715    0.00024757
     atom    9 type  1   force =    -0.00088220    0.00057685    0.00005151
     atom   10 type  1   force =     0.00011115   -0.00111643    0.00006555
     atom   11 type  1   force =    -0.00014733    0.00064190   -0.00064472
     atom   12 type  1   force =     0.00098285   -0.00086022   -0.00036741
     atom   13 type  1   force =     0.00051645   -0.00053256   -0.00062669
     atom   14 type  1   force =    -0.00020276    0.00130038   -0.00037650
     atom   15 type  1   force =     0.00042427   -0.00073541   -0.00011454
     atom   16 type  1   force =    -0.00020343    0.00082127   -0.00006062
     atom   17 type  1   force =     0.00131665    0.00012966    0.00007434
     atom   18 type  1   force =     0.00265201    0.00060437   -0.00015034
     atom   19 type  1   force =     0.00167724    0.00199929   -0.00006506
     atom   20 type  1   force =     0.00056294    0.00127688    0.00003558
     atom   21 type  1   force =    -0.00064489   -0.00043422    0.00025601
     atom   22 type  1   force =     0.00000771    0.00114113    0.00016560
     atom   23 type  1   force =     0.00089495   -0.00060115    0.00009623
     atom   24 type  1   force =    -0.00053773    0.00042519   -0.00064766
     atom   25 type  1   force =     0.00029262   -0.00133197   -0.00036444
     atom   26 type  1   force =     0.00019074   -0.00065326   -0.00059867
     atom   27 type  1   force =    -0.00108501    0.00093663   -0.00039444
     atom   28 type  2   force =    -0.00135506   -0.00068668    0.00189614
     atom   29 type  2   force =    -0.00165617   -0.00116637    0.00132871
     atom   30 type  2   force =    -0.00186812   -0.00083602    0.00128786
     atom   31 type  2   force =    -0.00133813   -0.00090499    0.00181210
     atom   32 type  2   force =    -0.00023615   -0.00259085   -0.00012752
     atom   33 type  2   force =    -0.00236411    0.00112392   -0.00010487
     atom   34 type  2   force =    -0.00005053    0.00071025   -0.00092698
     atom   35 type  2   force =    -0.00075665    0.00063355   -0.00219810
     atom   36 type  2   force =    -0.00065475    0.00055550   -0.00030635
     atom   37 type  2   force =     0.00107399   -0.00076161    0.00043244
     atom   38 type  2   force =     0.00173546   -0.00178161    0.00166849
     atom   39 type  2   force =     0.00070135   -0.00101752   -0.00040482
     atom   40 type  2   force =     0.00008756   -0.00108086   -0.00227864
     atom   41 type  2   force =     0.00063520   -0.00048995   -0.00092339
     atom   42 type  2   force =    -0.00011818    0.00145603    0.00047300
     atom   43 type  2   force =     0.00011529   -0.00093142   -0.00023689
     atom   44 type  2   force =    -0.00055685    0.00241499    0.00159947
     atom   45 type  2   force =    -0.00050106    0.00118338   -0.00039705
     atom   46 type  2   force =     0.00127526    0.00079717    0.00185128
     atom   47 type  2   force =     0.00193005    0.00094798    0.00124055
     atom   48 type  2   force =     0.00159644    0.00120533    0.00129411
     atom   49 type  2   force =     0.00139953    0.00064921    0.00179135
     atom   50 type  2   force =     0.00241315   -0.00095281   -0.00016365
     atom   51 type  2   force =     0.00021833    0.00259560   -0.00015208
     atom   52 type  2   force =    -0.00063876    0.00037558   -0.00097242
     atom   53 type  2   force =    -0.00022690    0.00089066   -0.00214877
     atom   54 type  2   force =    -0.00017894    0.00086185   -0.00034252
     atom   55 type  2   force =     0.00019218   -0.00135361    0.00050968
     atom   56 type  2   force =     0.00068167   -0.00235366    0.00148745
     atom   57 type  2   force =     0.00054871   -0.00109907   -0.00040952
     atom   58 type  2   force =     0.00071021   -0.00059710   -0.00208805
     atom   59 type  2   force =     0.00016942   -0.00077610   -0.00105576
     atom   60 type  2   force =    -0.00109352    0.00083208    0.00042358
     atom   61 type  2   force =     0.00077070   -0.00055465   -0.00037248
     atom   62 type  2   force =    -0.00181947    0.00177914    0.00153802
     atom   63 type  2   force =    -0.00070223    0.00100605   -0.00039403
     atom   64 type  3   force =     0.00173957   -0.00036930   -0.00004228
     atom   65 type  3   force =     0.00052323    0.00144721   -0.00012487
     atom   66 type  3   force =    -0.00062085   -0.00150784    0.00008422
     atom   67 type  3   force =    -0.00161671    0.00031426    0.00003961

     Total force =     0.014976     Total SCF correction =     0.000376

     number of scf cycles    =   6
     number of bfgs steps    =   5

     energy   old            =   -1409.6455850475 Ry
     energy   new            =   -1409.6461655483 Ry

     CASE: energy  _new < energy  _old

     new trust radius        =       0.0147628873 bohr
     new conv_thr            =       0.0000000265 Ry


ATOMIC_POSITIONS (angstrom)
Au      10.288239255   5.882425927  14.392326284
C       14.258090122   7.329111550  13.847770325
C       13.558540632   8.560211850  13.845726301
C       14.224213460   9.762644943  13.563047057
C       15.600304761   9.708489570  13.288686564
C       16.290354247   8.494916314  13.292238411
C       15.632486207   7.285471614  13.568958689
C       12.050954569   6.890610058  14.297014996
C       11.148732826   9.228911618  14.390765331
C       13.594958646   4.916415295  14.390880217
C       14.508731356   4.729211809  15.610032732
C       10.758062410  10.032617232  13.145228742
C       11.463243360  10.110225567  15.607491898
C       14.086784380   4.169562166  13.145751020
C        7.049696218   3.168254280  13.850534242
C        6.332299517   4.388997763  13.848070660
C        4.956438536   4.411481903  13.573997462
C        4.316415068   3.190495168  13.306312918
C        5.023783138   1.987000568  13.308627215
C        6.401140960   1.954199438  13.579232676
C        8.532394714   4.862425839  14.292118980
C        6.959841081   6.812139505  14.387400332
C        9.471624553   2.540291009  14.391800641
C        9.185867800   1.675654720  15.627510428
C        6.433666941   7.549813671  13.150815245
C        6.063888441   6.982254289  15.622147045
C        9.861340015   1.721342830  13.155707323
H       13.703975674  10.720106068  13.531201504
H       16.138778579  10.632950986  13.056776559
H       17.360684334   8.483716691  13.063354556
H       16.189506111   6.348775635  13.542141757
H       10.295462675   8.584663216  14.656128013
H       12.602848267   4.515070013  14.652324099
H       15.527481847   5.103990342  15.432157250
H       14.584186467   3.660889054  15.864950268
H       14.099092524   5.255487314  16.483935764
H       11.557226681  10.710425353  12.811139179
H        9.873403798  10.651187686  13.364596491
H       10.502907458   9.361452126  12.313131864
H       10.585427989  10.721124432  15.868912481
H       12.304185496  10.794863974  15.423239076
H       15.082984915   4.501306517  12.818305708
H       11.712939052   9.489832739  16.479888360
H       14.155313425   3.091918336  13.363421356
H       13.385228616   4.301141994  12.309964297
H        4.385706351   5.339581868  13.544368578
H        3.245233524   3.184033809  13.080562304
H        4.498197135   1.053346356  13.084440621
H        6.935287449   1.004135764  13.554058070
H        7.948657017   7.231544035  14.632047023
H       10.318819678   3.200995635  14.635696265
H        8.346769644   0.982320328  15.468975199
H       10.073257893   1.075808503  15.882265577
H        8.947645323   2.308584560  16.494194867
H        5.438311110   7.200692281  12.839625670
H        6.349099273   8.625914287  13.370800923
H        7.123521766   7.431588402  12.303369166
H        5.971948776   8.049221388  15.877687828
H        5.049643447   6.587827054  15.461613787
H        9.074726183   1.017122006  12.847795276
H        6.498551418   6.464747865  16.489096720
H       10.763767774   1.128488884  13.374488412
H       10.088705166   2.381148774  12.306611309
N       13.319094946   6.343319145  14.138575674
N       12.230790392   8.259519128  14.136398180
N        8.373474902   3.490554903  14.135298350
N        7.256897444   5.390331262  14.131761245



     Writing output data file iPr.save/
     Message from routine punch:
     wavefunctions written to file
     NEW-OLD atomic charge density approx. for the potential

     negative rho (up, down):  2.452E-02 0.000E+00

     total cpu time spent up to now is     2541.1 secs

     Self-consistent Calculation

     iteration #  1     ecut=    32.00 Ry     beta= 0.50
     Davidson diagonalization with overlap
     ethr =  1.00E-06,  avg # of iterations =  4.0

     negative rho (up, down):  2.451E-02 0.000E+00

     total cpu time spent up to now is     2734.0 secs

     total energy              =   -1409.64665069 Ry
     Harris-Foulkes estimate   =   -1409.64695920 Ry
     estimated scf accuracy    <       0.00041596 Ry

     iteration #  2     ecut=    32.00 Ry     beta= 0.50
     Davidson diagonalization with overlap
     ethr =  2.43E-07,  avg # of iterations =  3.0

     negative rho (up, down):  2.452E-02 0.000E+00

     total cpu time spent up to now is     2887.9 secs

     total energy              =   -1409.64670686 Ry
     Harris-Foulkes estimate   =   -1409.64673477 Ry
     estimated scf accuracy    <       0.00007656 Ry

     iteration #  3     ecut=    32.00 Ry     beta= 0.50
     Davidson diagonalization with overlap
     ethr =  4.48E-08,  avg # of iterations =  3.0

     negative rho (up, down):  2.451E-02 0.000E+00

     total cpu time spent up to now is     3038.6 secs

     total energy              =   -1409.64671759 Ry
     Harris-Foulkes estimate   =   -1409.64672418 Ry
     estimated scf accuracy    <       0.00002255 Ry

     iteration #  4     ecut=    32.00 Ry     beta= 0.50
     Davidson diagonalization with overlap
     ethr =  1.32E-08,  avg # of iterations =  3.0

     negative rho (up, down):  2.452E-02 0.000E+00

     total cpu time spent up to now is     3184.9 secs

     total energy              =   -1409.64672040 Ry
     Harris-Foulkes estimate   =   -1409.64672197 Ry
     estimated scf accuracy    <       0.00000471 Ry

     iteration #  5     ecut=    32.00 Ry     beta= 0.50
     Davidson diagonalization with overlap
     ethr =  2.76E-09,  avg # of iterations =  4.0

     negative rho (up, down):  2.451E-02 0.000E+00

     total cpu time spent up to now is     3327.9 secs

     total energy              =   -1409.64672097 Ry
     Harris-Foulkes estimate   =   -1409.64672200 Ry
     estimated scf accuracy    <       0.00000359 Ry

     iteration #  6     ecut=    32.00 Ry     beta= 0.50
     Davidson diagonalization with overlap
     ethr =  2.10E-09,  avg # of iterations =  5.0

     negative rho (up, down):  2.451E-02 0.000E+00

     total cpu time spent up to now is     3462.1 secs

     total energy              =   -1409.64672148 Ry
     Harris-Foulkes estimate   =   -1409.64672153 Ry
     estimated scf accuracy    <       0.00000019 Ry

     iteration #  7     ecut=    32.00 Ry     beta= 0.50
     Davidson diagonalization with overlap
     ethr =  1.10E-10,  avg # of iterations =  4.0

     negative rho (up, down):  2.451E-02 0.000E+00

     total cpu time spent up to now is     3610.8 secs

     total energy              =   -1409.64672152 Ry
     Harris-Foulkes estimate   =   -1409.64672154 Ry
     estimated scf accuracy    <       0.00000007 Ry

     iteration #  8     ecut=    32.00 Ry     beta= 0.50
     Davidson diagonalization with overlap
     ethr =  4.25E-11,  avg # of iterations =  3.0

     negative rho (up, down):  2.451E-02 0.000E+00

     total cpu time spent up to now is     3746.1 secs

     End of self-consistent calculation

          k = 0.0000 0.0000 0.0000 (556667 PWs)   bands (ev):

   -25.4391 -25.4300 -22.9577 -22.9549 -20.7906 -20.7828 -19.9181 -19.9102
   -19.0171 -19.0092 -18.1088 -18.0568 -18.0426 -18.0401 -17.0121 -17.0072
   -17.0047 -17.0001 -15.9735 -15.9648 -15.3438 -15.3410 -15.2832 -15.1174
   -13.9759 -13.9285 -13.7717 -13.7655 -12.4071 -12.3806 -12.3301 -12.2499
   -11.7278 -11.6754 -11.3557 -11.2984 -11.1870 -10.9525 -10.9178 -10.8200
   -10.7444 -10.7301 -10.4211 -10.4137 -10.3306 -10.3067 -10.1748 -10.1525
   -10.0319  -9.7086  -9.7015  -9.4389  -9.4164  -9.3810  -9.3769  -9.2242
    -9.2226  -8.9491  -8.9365  -8.6551  -8.6540  -8.6013  -8.5600  -8.5470
    -8.4661  -8.4535  -8.4474  -8.1316  -8.0398  -7.9142  -7.9003  -7.7963
    -7.6768  -7.1016  -7.0265  -7.0246  -6.9411  -6.8909  -6.5094  -6.4422
    -5.7926  -5.5540  -5.3576  -5.3541  -5.1833  -1.8663  -1.1629  -0.8786
    -0.7311  -0.4820  -0.4183  -0.4115  -0.3886  -0.3353  -0.2950  -0.2358
    -0.2203  -0.1395  -0.0702  -0.0387  -0.0276   0.0022   0.0062

     the Fermi energy is    -1.8664 ev

!    total energy              =   -1409.64672153 Ry
     Harris-Foulkes estimate   =   -1409.64672153 Ry
     estimated scf accuracy    <          2.4E-09 Ry

     total all-electron energy =    -40485.554377 Ry

     The total energy is the sum of the following terms:

     one-electron contribution =   -4743.89062572 Ry
     hartree contribution      =    2399.26107047 Ry
     xc contribution           =    -200.87000179 Ry
     ewald contribution        =    2020.57204247 Ry
     one-center paw contrib.   =    -884.70790901 Ry
     smearing contrib. (-TS)   =      -0.01129795 Ry

     convergence has been achieved in   8 iterations

     negative rho (up, down):  2.451E-02 0.000E+00

     Forces acting on atoms (cartesian axes, Ry/au):

     atom    1 type  4   force =    -0.00007258    0.00014824    0.00098126
     atom    2 type  1   force =    -0.00079625    0.00165236   -0.00049363
     atom    3 type  1   force =     0.00102077   -0.00153241   -0.00058569
     atom    4 type  1   force =    -0.00146959    0.00232025   -0.00018362
     atom    5 type  1   force =    -0.00090210    0.00088169   -0.00001180
     atom    6 type  1   force =     0.00010771   -0.00118979   -0.00008435
     atom    7 type  1   force =     0.00164356   -0.00235348   -0.00013418
     atom    8 type  1   force =     0.00345495    0.00175792   -0.00045576
     atom    9 type  1   force =    -0.00152024   -0.00017198    0.00041084
     atom   10 type  1   force =    -0.00087687   -0.00125423    0.00043492
     atom   11 type  1   force =    -0.00006964    0.00044397    0.00026896
     atom   12 type  1   force =     0.00038448   -0.00058731   -0.00055529
     atom   13 type  1   force =     0.00035442   -0.00034566    0.00029344
     atom   14 type  1   force =    -0.00023471    0.00060041   -0.00054015
     atom   15 type  1   force =    -0.00103213    0.00156410   -0.00036960
     atom   16 type  1   force =     0.00040608   -0.00146514   -0.00042386
     atom   17 type  1   force =    -0.00105843    0.00220970   -0.00004117
     atom   18 type  1   force =    -0.00032357    0.00144925   -0.00000527
     atom   19 type  1   force =     0.00076702   -0.00085746    0.00013051
     atom   20 type  1   force =     0.00138858   -0.00264983   -0.00008087
     atom   21 type  1   force =    -0.00327023   -0.00191465   -0.00054914
     atom   22 type  1   force =     0.00089355    0.00128714    0.00045388
     atom   23 type  1   force =     0.00149850    0.00017573    0.00043656
     atom   24 type  1   force =    -0.00039643    0.00026099    0.00027058
     atom   25 type  1   force =     0.00029155   -0.00060107   -0.00042903
     atom   26 type  1   force =     0.00009686   -0.00041252    0.00028592
     atom   27 type  1   force =    -0.00045552    0.00051429   -0.00042808
     atom   28 type  2   force =    -0.00132332   -0.00105988    0.00167101
     atom   29 type  2   force =    -0.00261745   -0.00206099    0.00113987
     atom   30 type  2   force =    -0.00298238   -0.00111805    0.00108256
     atom   31 type  2   force =    -0.00160508   -0.00064180    0.00161942
     atom   32 type  2   force =    -0.00180539   -0.00161425    0.00025896
     atom   33 type  2   force =    -0.00223630   -0.00070427    0.00027603
     atom   34 type  2   force =    -0.00019231    0.00064477   -0.00103550
     atom   35 type  2   force =    -0.00047628    0.00010590   -0.00196478
     atom   36 type  2   force =    -0.00061711    0.00081411    0.00019564
     atom   37 type  2   force =     0.00117435   -0.00099672    0.00008854
     atom   38 type  2   force =     0.00078040   -0.00107271    0.00122852
     atom   39 type  2   force =     0.00085793   -0.00085997   -0.00078654
     atom   40 type  2   force =    -0.00019515   -0.00053322   -0.00202517
     atom   41 type  2   force =     0.00052509   -0.00053199   -0.00101276
     atom   42 type  2   force =    -0.00025214    0.00168615    0.00006212
     atom   43 type  2   force =     0.00036147   -0.00103825    0.00022154
     atom   44 type  2   force =    -0.00047980    0.00118060    0.00114377
     atom   45 type  2   force =    -0.00023620    0.00122759   -0.00074276
     atom   46 type  2   force =     0.00146257    0.00080680    0.00166690
     atom   47 type  2   force =     0.00316370    0.00124840    0.00111561
     atom   48 type  2   force =     0.00247736    0.00211830    0.00113191
     atom   49 type  2   force =     0.00125310    0.00119749    0.00161798
     atom   50 type  2   force =     0.00239466    0.00081778    0.00020632
     atom   51 type  2   force =     0.00175805    0.00167394    0.00023861
     atom   52 type  2   force =    -0.00057173    0.00044986   -0.00105947
     atom   53 type  2   force =     0.00007807    0.00046155   -0.00195614
     atom   54 type  2   force =    -0.00042332    0.00094541    0.00015853
     atom   55 type  2   force =     0.00033995   -0.00163141    0.00003860
     atom   56 type  2   force =     0.00062808   -0.00124338    0.00105418
     atom   57 type  2   force =     0.00023253   -0.00118287   -0.00074191
     atom   58 type  2   force =     0.00045858   -0.00015988   -0.00188965
     atom   59 type  2   force =     0.00017452   -0.00072357   -0.00111101
     atom   60 type  2   force =    -0.00128186    0.00113179   -0.00004958
     atom   61 type  2   force =     0.00076070   -0.00080889    0.00017677
     atom   62 type  2   force =    -0.00086216    0.00121226    0.00110736
     atom   63 type  2   force =    -0.00093868    0.00080657   -0.00075553
     atom   64 type  3   force =     0.00121837   -0.00028493   -0.00030123
     atom   65 type  3   force =     0.00038648    0.00084832   -0.00038200
     atom   66 type  3   force =    -0.00033702   -0.00118273   -0.00012303
     atom   67 type  3   force =    -0.00088205    0.00014161   -0.00015906

     Total force =     0.015979     Total SCF correction =     0.000085

     number of scf cycles    =   7
     number of bfgs steps    =   6

     energy   old            =   -1409.6461655483 Ry
     energy   new            =   -1409.6467215294 Ry

     CASE: energy  _new < energy  _old

     new trust radius        =       0.0140699605 bohr
     new conv_thr            =       0.0000000345 Ry


ATOMIC_POSITIONS (angstrom)
Au      10.288203758   5.882183156  14.390441062
C       14.254974695   7.328290067  13.848347084
C       13.556060504   8.557917234  13.846147717
C       14.220018117   9.759914905  13.563015975
C       15.596099446   9.706397328  13.286580298
C       16.286465841   8.492480910  13.290164347
C       15.628387053   7.283472914  13.569077804
C       12.049515390   6.889528332  14.298348931
C       11.149793296   9.226553797  14.389962294
C       13.593629235   4.918369762  14.390133254
C       14.508011491   4.730762231  15.607549398
C       10.761087705  10.029533814  13.144943333
C       11.464293935  10.108522019  15.605033141
C       14.085729183   4.173802230  13.145398655
C        7.051920452   3.170581905  13.851256138
C        6.335216861   4.390077032  13.848781001
C        4.960933088   4.413578113  13.574481052
C        4.320315241   3.193172247  13.304729614
C        5.027664647   1.989139949  13.307070205
C        6.404986547   1.956649449  13.579562870
C        8.533824222   4.863316518  14.293779806
C        6.961392011   6.810368710  14.386706941
C        9.470511666   2.542522948  14.391047840
C        9.184817706   1.676997970  15.625025867
C        6.435024443   7.545646957  13.150452676
C        6.064852907   6.980795663  15.619725693
C        9.858164287   1.724606415  13.155250943
H       13.701751207  10.717193785  13.536464655
H       16.135115123  10.629601670  13.060754434
H       17.356037522   8.482245533  13.067128754
H       16.185599222   6.348262186  13.547152491
H       10.298765352   8.578578849  14.654669188
H       12.599295106   4.521049245  14.650897650
H       15.527072329   5.105898691  15.429874317
H       14.582424513   3.662333429  15.859858707
H       14.097689009   5.256008250  16.481531029
H       11.560137391  10.708781487  12.812662317
H        9.877753459  10.646907398  13.368862061
H       10.504666495   9.358776130  12.312984127
H       10.585664217  10.718478308  15.863561170
H       12.305701667  10.793227801  15.420962864
H       15.083040340   4.504981265  12.820006254
H       11.712572096   9.488184810  16.477675934
H       14.154161591   3.097925767  13.367508339
H       13.383786867   4.304196144  12.309786533
H        4.389242065   5.340064309  13.549456623
H        3.250188114   3.185825930  13.084198513
H        4.501711115   1.056845134  13.088302555
H        6.937446044   1.007151862  13.558990645
H        7.952376235   7.226069862  14.630609724
H       10.315449445   3.206932445  14.634225836
H        8.345265127   0.983599203  15.466529526
H       10.072652345   1.077809981  15.877327596
H        8.947783933   2.310085396  16.491718468
H        5.438410930   7.197283658  12.841522373
H        6.350524531   8.620052284  13.374579551
H        7.125202727   7.428743177  12.303117736
H        5.973549727   8.047815875  15.872902707
H        5.050506027   6.585730622  15.458923427
H        9.071788601   1.018816485  12.849447751
H        6.500195979   6.464133310  16.486596728
H       10.759104441   1.132646085  13.378396697
H       10.087058681   2.384020536  12.306339238
N       13.318498508   6.343155147  14.139777075
N       12.230239354   8.258681241  14.137384611
N        8.373792717   3.491093444  14.136672255
N        7.257719850   5.390535899  14.133118957



     Writing output data file iPr.save/
     Message from routine punch:
     wavefunctions written to file
     NEW-OLD atomic charge density approx. for the potential

     negative rho (up, down):  2.454E-02 0.000E+00

     total cpu time spent up to now is     3901.3 secs

     Self-consistent Calculation

     iteration #  1     ecut=    32.00 Ry     beta= 0.50
     Davidson diagonalization with overlap
     ethr =  1.00E-06,  avg # of iterations =  3.0

     negative rho (up, down):  2.453E-02 0.000E+00

     total cpu time spent up to now is     4091.7 secs

     total energy              =   -1409.64703572 Ry
     Harris-Foulkes estimate   =   -1409.64752188 Ry
     estimated scf accuracy    <       0.00035917 Ry

     iteration #  2     ecut=    32.00 Ry     beta= 0.50
     Davidson diagonalization with overlap
     ethr =  2.10E-07,  avg # of iterations =  3.0

     negative rho (up, down):  2.453E-02 0.000E+00

     total cpu time spent up to now is     4243.1 secs

     total energy              =   -1409.64707465 Ry
     Harris-Foulkes estimate   =   -1409.64709835 Ry
     estimated scf accuracy    <       0.00006991 Ry

     iteration #  3     ecut=    32.00 Ry     beta= 0.50
     Davidson diagonalization with overlap
     ethr =  4.09E-08,  avg # of iterations =  3.0

     negative rho (up, down):  2.453E-02 0.000E+00

     total cpu time spent up to now is     4391.9 secs

     total energy              =   -1409.64708407 Ry
     Harris-Foulkes estimate   =   -1409.64709025 Ry
     estimated scf accuracy    <       0.00002184 Ry

     iteration #  4     ecut=    32.00 Ry     beta= 0.50
     Davidson diagonalization with overlap
     ethr =  1.28E-08,  avg # of iterations =  3.0

     negative rho (up, down):  2.453E-02 0.000E+00

     total cpu time spent up to now is     4537.1 secs

     total energy              =   -1409.64708714 Ry
     Harris-Foulkes estimate   =   -1409.64708782 Ry
     estimated scf accuracy    <       0.00000251 Ry

     iteration #  5     ecut=    32.00 Ry     beta= 0.50
     Davidson diagonalization with overlap
     ethr =  1.47E-09,  avg # of iterations =  4.0

     negative rho (up, down):  2.453E-02 0.000E+00

     total cpu time spent up to now is     4683.1 secs

     total energy              =   -1409.64708743 Ry
     Harris-Foulkes estimate   =   -1409.64708784 Ry
     estimated scf accuracy    <       0.00000128 Ry

     iteration #  6     ecut=    32.00 Ry     beta= 0.50
     Davidson diagonalization with overlap
     ethr =  7.48E-10,  avg # of iterations =  5.0

     negative rho (up, down):  2.452E-02 0.000E+00

     total cpu time spent up to now is     4817.8 secs

     total energy              =   -1409.64708763 Ry
     Harris-Foulkes estimate   =   -1409.64708770 Ry
     estimated scf accuracy    <       0.00000022 Ry

     iteration #  7     ecut=    32.00 Ry     beta= 0.50
     Davidson diagonalization with overlap
     ethr =  1.28E-10,  avg # of iterations =  5.0

     negative rho (up, down):  2.452E-02 0.000E+00

     total cpu time spent up to now is     4958.9 secs

     total energy              =   -1409.64708766 Ry
     Harris-Foulkes estimate   =   -1409.64708769 Ry
     estimated scf accuracy    <       0.00000008 Ry

     iteration #  8     ecut=    32.00 Ry     beta= 0.50
     Davidson diagonalization with overlap
     ethr =  4.44E-11,  avg # of iterations =  4.0

     negative rho (up, down):  2.453E-02 0.000E+00

     total cpu time spent up to now is     5092.9 secs

     End of self-consistent calculation

          k = 0.0000 0.0000 0.0000 (556667 PWs)   bands (ev):

   -25.4576 -25.4488 -22.9807 -22.9781 -20.7971 -20.7890 -19.9300 -19.9222
   -19.0246 -19.0167 -18.1135 -18.0609 -18.0468 -18.0436 -17.0141 -17.0092
   -17.0066 -17.0020 -15.9866 -15.9779 -15.3563 -15.3534 -15.2917 -15.1242
   -13.9836 -13.9369 -13.7672 -13.7611 -12.4134 -12.3866 -12.3281 -12.2476
   -11.7343 -11.6821 -11.3665 -11.3099 -11.1964 -10.9590 -10.9229 -10.8225
   -10.7518 -10.7377 -10.4273 -10.4199 -10.3346 -10.3117 -10.1785 -10.1558
   -10.0415  -9.7135  -9.7065  -9.4406  -9.4184  -9.3821  -9.3773  -9.2232
    -9.2216  -8.9483  -8.9346  -8.6618  -8.6608  -8.6105  -8.5637  -8.5507
    -8.4726  -8.4547  -8.4496  -8.1319  -8.0419  -7.9162  -7.8963  -7.7976
    -7.6774  -7.1022  -7.0272  -7.0257  -6.9487  -6.9024  -6.5173  -6.4490
    -5.7961  -5.5537  -5.3544  -5.3507  -5.1793  -1.8714  -1.1624  -0.8811
    -0.7294  -0.4793  -0.4172  -0.4093  -0.3835  -0.3344  -0.2934  -0.2351
    -0.2198  -0.1391  -0.0701  -0.0372  -0.0263   0.0023   0.0065

     the Fermi energy is    -1.8714 ev

!    total energy              =   -1409.64708767 Ry
     Harris-Foulkes estimate   =   -1409.64708768 Ry
     estimated scf accuracy    <          1.7E-09 Ry

     total all-electron energy =    -40485.554743 Ry

     The total energy is the sum of the following terms:

     one-electron contribution =   -4748.80147495 Ry
     hartree contribution      =    2401.71427280 Ry
     xc contribution           =    -200.91490025 Ry
     ewald contribution        =    2023.07585786 Ry
     one-center paw contrib.   =    -884.70954660 Ry
     smearing contrib. (-TS)   =      -0.01129653 Ry

     convergence has been achieved in   8 iterations

     negative rho (up, down):  2.453E-02 0.000E+00

     Forces acting on atoms (cartesian axes, Ry/au):

     atom    1 type  4   force =     0.00000918    0.00022358    0.00173689
     atom    2 type  1   force =     0.00124607    0.00078877   -0.00100087
     atom    3 type  1   force =     0.00116940    0.00021895   -0.00100701
     atom    4 type  1   force =     0.00120559    0.00247803   -0.00048818
     atom    5 type  1   force =    -0.00217212   -0.00189564    0.00126030
     atom    6 type  1   force =    -0.00258468   -0.00065996    0.00109279
     atom    7 type  1   force =     0.00261522   -0.00030091   -0.00034841
     atom    8 type  1   force =     0.00494400    0.00260894   -0.00093492
     atom    9 type  1   force =    -0.00156978   -0.00079836    0.00054849
     atom   10 type  1   force =    -0.00142490   -0.00106357    0.00058495
     atom   11 type  1   force =     0.00000092    0.00036396    0.00064660
     atom   12 type  1   force =     0.00012128   -0.00028436   -0.00051356
     atom   13 type  1   force =     0.00029517   -0.00024168    0.00063642
     atom   14 type  1   force =    -0.00008636    0.00017959   -0.00048240
     atom   15 type  1   force =    -0.00143974   -0.00061809   -0.00083490
     atom   16 type  1   force =    -0.00041968   -0.00084741   -0.00066753
     atom   17 type  1   force =    -0.00309884    0.00059315   -0.00045849
     atom   18 type  1   force =     0.00264612    0.00078622    0.00114319
     atom   19 type  1   force =     0.00194725    0.00197789    0.00131000
     atom   20 type  1   force =    -0.00121749   -0.00215845   -0.00028816
     atom   21 type  1   force =    -0.00478559   -0.00290534   -0.00109877
     atom   22 type  1   force =     0.00157317    0.00105078    0.00056796
     atom   23 type  1   force =     0.00161341    0.00070413    0.00056079
     atom   24 type  1   force =    -0.00041257    0.00017722    0.00065466
     atom   25 type  1   force =     0.00005585   -0.00024246   -0.00038661
     atom   26 type  1   force =    -0.00002416   -0.00040539    0.00063073
     atom   27 type  1   force =    -0.00021241    0.00009127   -0.00030907
     atom   28 type  2   force =    -0.00224199    0.00023945    0.00137364
     atom   29 type  2   force =    -0.00152511    0.00021519    0.00017024
     atom   30 type  2   force =    -0.00058950   -0.00126141    0.00015390
     atom   31 type  2   force =    -0.00082703   -0.00207889    0.00135302
     atom   32 type  2   force =    -0.00243675   -0.00038986    0.00041191
     atom   33 type  2   force =    -0.00140173   -0.00184621    0.00041630
     atom   34 type  2   force =    -0.00073682    0.00043926   -0.00099327
     atom   35 type  2   force =    -0.00011469   -0.00048910   -0.00139411
     atom   36 type  2   force =    -0.00044679    0.00082159    0.00055218
     atom   37 type  2   force =     0.00087634   -0.00143682   -0.00004301
     atom   38 type  2   force =    -0.00022750   -0.00026562    0.00054121
     atom   39 type  2   force =     0.00091507   -0.00058711   -0.00095554
     atom   40 type  2   force =    -0.00048106    0.00011196   -0.00143187
     atom   41 type  2   force =     0.00006272   -0.00087461   -0.00094701
     atom   42 type  2   force =    -0.00075561    0.00166012   -0.00013237
     atom   43 type  2   force =     0.00045691   -0.00089589    0.00053701
     atom   44 type  2   force =    -0.00032662   -0.00013380    0.00044274
     atom   45 type  2   force =     0.00006350    0.00112617   -0.00087998
     atom   46 type  2   force =     0.00097338    0.00199333    0.00142683
     atom   47 type  2   force =     0.00060003    0.00142494    0.00022264
     atom   48 type  2   force =     0.00133055   -0.00016185    0.00021354
     atom   49 type  2   force =     0.00224773   -0.00029745    0.00136950
     atom   50 type  2   force =     0.00157736    0.00188178    0.00034855
     atom   51 type  2   force =     0.00233542    0.00046186    0.00040873
     atom   52 type  2   force =    -0.00013335    0.00083442   -0.00100476
     atom   53 type  2   force =     0.00043881   -0.00010535   -0.00141245
     atom   54 type  2   force =    -0.00051967    0.00077719    0.00051243
     atom   55 type  2   force =     0.00090004   -0.00162763   -0.00018871
     atom   56 type  2   force =     0.00047965    0.00005252    0.00041359
     atom   57 type  2   force =    -0.00009148   -0.00113121   -0.00086776
     atom   58 type  2   force =     0.00011878    0.00040366   -0.00134553
     atom   59 type  2   force =     0.00066884   -0.00049050   -0.00100597
     atom   60 type  2   force =    -0.00104573    0.00163479   -0.00027907
     atom   61 type  2   force =     0.00058762   -0.00080716    0.00055956
     atom   62 type  2   force =     0.00020601    0.00046418    0.00045690
     atom   63 type  2   force =    -0.00105685    0.00053592   -0.00091266
     atom   64 type  3   force =    -0.00153327    0.00075486   -0.00021617
     atom   65 type  3   force =    -0.00013216   -0.00184229   -0.00028849
     atom   66 type  3   force =     0.00017510    0.00183123   -0.00003583
     atom   67 type  3   force =     0.00161555   -0.00076251   -0.00010474

     Total force =     0.016745     Total SCF correction =     0.000065

     number of scf cycles    =   8
     number of bfgs steps    =   7

     energy   old            =   -1409.6467215294 Ry
     energy   new            =   -1409.6470876705 Ry

     CASE: energy  _new < energy  _old

     new trust radius        =       0.0105691757 bohr
     new conv_thr            =       0.0000000366 Ry


ATOMIC_POSITIONS (angstrom)
Au      10.288186060   5.882142998  14.390241336
C       14.254102942   7.327655439  13.848078365
C       13.554849683   8.557162102  13.845773411
C       14.217983702   9.758879383  13.562784736
C       15.591913156   9.703573340  13.285964779
C       16.282082791   8.490560334  13.289459521
C       15.626589493   7.282355654  13.569038185
C       12.050466601   6.889786341  14.298900253
C       11.149882186   9.224598566  14.389664403
C       13.592173676   4.919262494  14.389892683
C       14.507346787   4.731972598  15.606105622
C       10.763152133  10.027205885  13.144583680
C       11.465048583  10.107097714  15.603596539
C       14.084883332   4.176776070  13.145010634
C        7.052779602   3.171093589  13.851192611
C        6.336560850   4.390810986  13.848828055
C        4.962596091   4.415011671  13.574607883
C        4.324800114   3.195297615  13.304395830
C        5.031478543   1.992063167  13.306856676
C        6.406761165   1.957754602  13.579703287
C        8.532969666   4.862770560  14.294456499
C        6.963117992   6.809597028  14.386515549
C        9.470405193   2.544312614  14.390812713
C        9.184001640   1.678133691  15.623575627
C        6.436074824   7.542687401  13.150098059
C        6.065670722   6.979611125  15.618316434
C        9.855941587   1.726976753  13.154863519
H       13.698656233  10.715715726  13.540882546
H       16.131786153  10.627606490  13.063517065
H       17.352672506   8.480484455  13.069747069
H       16.182647847   6.346273838  13.551387896
H       10.299295852   8.574102059  14.653996017
H       12.595808965   4.523839679  14.650252647
H       15.526355486   5.107492589  15.427688286
H       14.581172547   3.663031974  15.855556766
H       14.096458350   5.256890939  16.480312196
H       11.562677231  10.706754977  12.813674709
H        9.880603222  10.643815447  13.372044130
H       10.506424319   9.356590580  12.312254716
H       10.585551054  10.716754694  15.859059812
H       12.306798063  10.791573851  15.418812500
H       15.082595945   4.508530204  12.821085886
H       11.712622509   9.486498595  16.476576966
H       14.153180676   3.101958721  13.370507383
H       13.382840656   4.306966878  12.309082588
H        4.392055658   5.341945273  13.553791989
H        3.253737097   3.187912826  13.086762046
H        4.504813921   1.058973654  13.091015539
H        6.940512060   1.008645699  13.563184619
H        7.956069671   7.223643009  14.629907732
H       10.314811397   3.211357781  14.633539889
H        8.344126679   0.984981801  15.464226493
H       10.072484790   1.079102316  15.873118310
H        8.947537055   2.311600880  16.490431291
H        5.439042374   7.193931185  12.842697929
H        6.351787174   8.616070322  13.377355152
H        7.126287681   7.426110222  12.302378410
H        5.974695246   8.047092969  15.868839104
H        5.051490245   6.583977206  15.456455134
H        9.069117150   1.020994523  12.850399919
H        6.501675150   6.463200652  16.485309361
H       10.756043008   1.135763250  13.381289489
H       10.085281586   2.386290932  12.305574395
N       13.317885711   6.343410557  14.140354475
N       12.230088028   8.257667048  14.137769023
N        8.373823551   3.491908384  14.137473713
N        7.258501769   5.390293304  14.133863276



     Writing output data file iPr.save/
     Message from routine punch:
     wavefunctions written to file
     NEW-OLD atomic charge density approx. for the potential

     negative rho (up, down):  2.454E-02 0.000E+00

     total cpu time spent up to now is     5248.0 secs

     Self-consistent Calculation

     iteration #  1     ecut=    32.00 Ry     beta= 0.50
     Davidson diagonalization with overlap
     ethr =  1.00E-06,  avg # of iterations =  4.0

     negative rho (up, down):  2.454E-02 0.000E+00

     total cpu time spent up to now is     5428.8 secs

     total energy              =   -1409.64733320 Ry
     Harris-Foulkes estimate   =   -1409.64765064 Ry
     estimated scf accuracy    <       0.00019098 Ry

     iteration #  2     ecut=    32.00 Ry     beta= 0.50
     Davidson diagonalization with overlap
     ethr =  1.12E-07,  avg # of iterations =  3.0

     negative rho (up, down):  2.454E-02 0.000E+00

     total cpu time spent up to now is     5579.5 secs

     total energy              =   -1409.64735672 Ry
     Harris-Foulkes estimate   =   -1409.64736304 Ry
     estimated scf accuracy    <       0.00002833 Ry

     iteration #  3     ecut=    32.00 Ry     beta= 0.50
     Davidson diagonalization with overlap
     ethr =  1.66E-08,  avg # of iterations =  4.0

     negative rho (up, down):  2.454E-02 0.000E+00

     total cpu time spent up to now is     5723.7 secs

     total energy              =   -1409.64735904 Ry
     Harris-Foulkes estimate   =   -1409.64736112 Ry
     estimated scf accuracy    <       0.00000816 Ry

     iteration #  4     ecut=    32.00 Ry     beta= 0.50
     Davidson diagonalization with overlap
     ethr =  4.77E-09,  avg # of iterations =  4.0

     negative rho (up, down):  2.454E-02 0.000E+00

     total cpu time spent up to now is     5870.5 secs

     total energy              =   -1409.64735999 Ry
     Harris-Foulkes estimate   =   -1409.64736083 Ry
     estimated scf accuracy    <       0.00000245 Ry

     iteration #  5     ecut=    32.00 Ry     beta= 0.50
     Davidson diagonalization with overlap
     ethr =  1.43E-09,  avg # of iterations =  4.0

     negative rho (up, down):  2.454E-02 0.000E+00

     total cpu time spent up to now is     6011.4 secs

     total energy              =   -1409.64736035 Ry
     Harris-Foulkes estimate   =   -1409.64736074 Ry
     estimated scf accuracy    <       0.00000136 Ry

     iteration #  6     ecut=    32.00 Ry     beta= 0.50
     Davidson diagonalization with overlap
     ethr =  7.98E-10,  avg # of iterations =  4.0

     negative rho (up, down):  2.454E-02 0.000E+00

     total cpu time spent up to now is     6145.3 secs

     total energy              =   -1409.64736055 Ry
     Harris-Foulkes estimate   =   -1409.64736058 Ry
     estimated scf accuracy    <       0.00000009 Ry

     iteration #  7     ecut=    32.00 Ry     beta= 0.50
     Davidson diagonalization with overlap
     ethr =  5.08E-11,  avg # of iterations =  4.0

     negative rho (up, down):  2.454E-02 0.000E+00

     total cpu time spent up to now is     6290.5 secs

     End of self-consistent calculation

          k = 0.0000 0.0000 0.0000 (556667 PWs)   bands (ev):

   -25.4744 -25.4654 -22.9933 -22.9905 -20.8097 -20.8016 -19.9394 -19.9315
   -19.0294 -19.0215 -18.1175 -18.0649 -18.0585 -18.0557 -17.0147 -17.0097
   -17.0072 -17.0025 -15.9920 -15.9836 -15.3630 -15.3602 -15.2929 -15.1265
   -13.9859 -13.9393 -13.7671 -13.7609 -12.4173 -12.3907 -12.3268 -12.2464
   -11.7378 -11.6856 -11.3693 -11.3175 -11.1988 -10.9611 -10.9243 -10.8244
   -10.7576 -10.7434 -10.4286 -10.4211 -10.3383 -10.3144 -10.1840 -10.1606
   -10.0363  -9.7176  -9.7106  -9.4437  -9.4217  -9.3832  -9.3791  -9.2245
    -9.2228  -8.9459  -8.9326  -8.6587  -8.6569  -8.6166  -8.5673  -8.5543
    -8.4772  -8.4573  -8.4527  -8.1332  -8.0442  -7.9184  -7.9005  -7.8012
    -7.6777  -7.0992  -7.0284  -7.0266  -6.9443  -6.8965  -6.5141  -6.4449
    -5.7921  -5.5523  -5.3584  -5.3549  -5.1780  -1.8640  -1.1566  -0.8806
    -0.7292  -0.4739  -0.4178  -0.4066  -0.3776  -0.3323  -0.2921  -0.2351
    -0.2199  -0.1392  -0.0701  -0.0361  -0.0254   0.0025   0.0072

     the Fermi energy is    -1.8641 ev

!    total energy              =   -1409.64736056 Ry
     Harris-Foulkes estimate   =   -1409.64736058 Ry
     estimated scf accuracy    <       0.00000003 Ry

     total all-electron energy =    -40485.555016 Ry

     The total energy is the sum of the following terms:

     one-electron contribution =   -4752.24517226 Ry
     hartree contribution      =    2403.43262007 Ry
     xc contribution           =    -200.94091768 Ry
     ewald contribution        =    2024.82787897 Ry
     one-center paw contrib.   =    -884.71047276 Ry
     smearing contrib. (-TS)   =      -0.01129690 Ry

     convergence has been achieved in   7 iterations

     negative rho (up, down):  2.454E-02 0.000E+00

     Forces acting on atoms (cartesian axes, Ry/au):

     atom    1 type  4   force =     0.00007035    0.00018265    0.00188581
     atom    2 type  1   force =     0.00002329    0.00129988   -0.00089004
     atom    3 type  1   force =     0.00139193   -0.00057396   -0.00100244
     atom    4 type  1   force =    -0.00126284    0.00268568    0.00017655
     atom    5 type  1   force =     0.00029881    0.00094784    0.00074229
     atom    6 type  1   force =     0.00080004   -0.00025359    0.00074209
     atom    7 type  1   force =     0.00206572   -0.00242702    0.00013757
     atom    8 type  1   force =     0.00239508    0.00127241   -0.00054674
     atom    9 type  1   force =    -0.00167594   -0.00190770    0.00052620
     atom   10 type  1   force =    -0.00240454   -0.00056141    0.00056029
     atom   11 type  1   force =    -0.00034873    0.00019237    0.00082427
     atom   12 type  1   force =    -0.00027110   -0.00040139   -0.00036162
     atom   13 type  1   force =     0.00000232   -0.00046483    0.00077944
     atom   14 type  1   force =    -0.00037968   -0.00010209   -0.00034425
     atom   15 type  1   force =    -0.00103395    0.00073422   -0.00063825
     atom   16 type  1   force =    -0.00068360   -0.00129641   -0.00081669
     atom   17 type  1   force =    -0.00140299    0.00213376    0.00021080
     atom   18 type  1   force =    -0.00098664    0.00054523    0.00072793
     atom   19 type  1   force =    -0.00027495   -0.00095171    0.00080242
     atom   20 type  1   force =     0.00109948   -0.00296652    0.00025053
     atom   21 type  1   force =    -0.00221246   -0.00138649   -0.00065820
     atom   22 type  1   force =     0.00245814    0.00054702    0.00050023
     atom   23 type  1   force =     0.00170039    0.00186122    0.00055680
     atom   24 type  1   force =    -0.00009500    0.00040354    0.00081790
     atom   25 type  1   force =     0.00040175    0.00001244   -0.00029400
     atom   26 type  1   force =     0.00036654   -0.00028076    0.00078676
     atom   27 type  1   force =     0.00016473    0.00029142   -0.00027948
     atom   28 type  2   force =    -0.00179400    0.00037929    0.00102822
     atom   29 type  2   force =    -0.00157322   -0.00033890    0.00000049
     atom   30 type  2   force =    -0.00097469   -0.00094548   -0.00004704
     atom   31 type  2   force =    -0.00047195   -0.00166356    0.00103818
     atom   32 type  2   force =    -0.00185954    0.00086177    0.00025678
     atom   33 type  2   force =    -0.00001478   -0.00202986    0.00027286
     atom   34 type  2   force =    -0.00104251    0.00031608   -0.00087872
     atom   35 type  2   force =     0.00015935   -0.00058879   -0.00081167
     atom   36 type  2   force =    -0.00012761    0.00047798    0.00047078
     atom   37 type  2   force =     0.00064746   -0.00157740   -0.00008030
     atom   38 type  2   force =    -0.00066313    0.00018764   -0.00017899
     atom   39 type  2   force =     0.00089733   -0.00018555   -0.00070438
     atom   40 type  2   force =    -0.00040102    0.00041057   -0.00083943
     atom   41 type  2   force =    -0.00024076   -0.00109932   -0.00081684
     atom   42 type  2   force =    -0.00097269    0.00150662   -0.00019799
     atom   43 type  2   force =     0.00032108   -0.00043700    0.00042264
     atom   44 type  2   force =    -0.00014943   -0.00076452   -0.00028622
     atom   45 type  2   force =     0.00040875    0.00089094   -0.00061177
     atom   46 type  2   force =     0.00041053    0.00202184    0.00110033
     atom   47 type  2   force =     0.00097201    0.00111838    0.00005468
     atom   48 type  2   force =     0.00134295    0.00043599    0.00007306
     atom   49 type  2   force =     0.00165194   -0.00020743    0.00107357
     atom   50 type  2   force =     0.00022116    0.00198294    0.00023295
     atom   51 type  2   force =     0.00176419   -0.00084409    0.00029467
     atom   52 type  2   force =     0.00013300    0.00105504   -0.00088479
     atom   53 type  2   force =     0.00039933   -0.00037198   -0.00084500
     atom   54 type  2   force =    -0.00039961    0.00031845    0.00045442
     atom   55 type  2   force =     0.00109668   -0.00152010   -0.00026473
     atom   56 type  2   force =     0.00029302    0.00070212   -0.00025439
     atom   57 type  2   force =    -0.00043965   -0.00094185   -0.00059263
     atom   58 type  2   force =    -0.00013738    0.00048969   -0.00078752
     atom   59 type  2   force =     0.00097420   -0.00035299   -0.00085435
     atom   60 type  2   force =    -0.00086561    0.00175183   -0.00034918
     atom   61 type  2   force =     0.00022872   -0.00046739    0.00049082
     atom   62 type  2   force =     0.00073079   -0.00005297   -0.00021389
     atom   63 type  2   force =    -0.00107089    0.00012123   -0.00059101
     atom   64 type  3   force =    -0.00092358    0.00068572   -0.00039260
     atom   65 type  3   force =     0.00012925   -0.00133051   -0.00043265
     atom   66 type  3   force =    -0.00015076    0.00117883   -0.00028742
     atom   67 type  3   force =     0.00128491   -0.00070907   -0.00025711

     Total force =     0.013677     Total SCF correction =     0.000413

     number of scf cycles    =   9
     number of bfgs steps    =   8

     energy   old            =   -1409.6470876705 Ry
     energy   new            =   -1409.6473605554 Ry

     CASE: energy  _new < energy  _old

     new trust radius        =       0.0120074835 bohr
     new conv_thr            =       0.0000000273 Ry


ATOMIC_POSITIONS (angstrom)
Au      10.288208314   5.882277857  14.391795449
C       14.254031081   7.327760020  13.846988266
C       13.554966561   8.556847639  13.844488164
C       14.215045210   9.759615384  13.562881299
C       15.588894080   9.702046240  13.286101533
C       16.279247279   8.488917295  13.289503686
C       15.626193589   7.279589860  13.569256426
C       12.052361470   6.890553764  14.299090546
C       11.148474288   9.221678470  14.389873046
C       13.589209374   4.919327185  14.390171821
C       14.506346349   4.733087128  15.605578134
C       10.764518147  10.024901836  13.144030783
C       11.465568758  10.105424212  15.603038707
C       14.083780919   4.179081794  13.144449125
C        7.052714295   3.171375749  13.850497356
C        6.336416676   4.390758749  13.848057221
C        4.963476022   4.417814017  13.575026287
C        4.327603540   3.197352819  13.304744621
C        5.034197112   1.993687777  13.307380070
C        6.409299422   1.956826801  13.580156276
C        8.531354982   4.861677326  14.294640749
C        6.966369790   6.809623032  14.386819079
C        9.471806697   2.547053287  14.391126967
C        9.183368207   1.679519025  15.623024635
C        6.437388908   7.540307915  13.149595622
C        6.066811472   6.978424423  15.617792019
C        9.854342439   1.729278887  13.154318511
H       13.694327475  10.715127380  13.545429408
H       16.127547604  10.625523887  13.065827157
H       17.348848766   8.478176103  13.071902387
H       16.179958868   6.342831803  13.555794550
H       10.297698220   8.570948661  14.653784557
H       12.592501833   4.524113784  14.650086225
H       15.524959066   5.109133597  15.425072144
H       14.580245729   3.663181298  15.851200566
H       14.095295139   5.258123230  16.479853528
H       11.565408831  10.703711901  12.814411364
H        9.882504731  10.641314451  13.374543044
H       10.508670301   9.354600473  12.310955054
H       10.585153606  10.715625219  15.854516545
[...]
C       14.246882737   7.318007489  13.953955509
C       13.537459468   8.543070036  13.950838141
C       14.188500624   9.754178260  13.684969214
C       15.565424476   9.705787684  13.419666892
C       16.266451927   8.497486240  13.425636275
C       15.623128067   7.279808539  13.695043910
C       12.046217604   6.864520652  14.361836808
C       11.085067015   9.164969535  14.353843512
C       13.557616456   4.881986827  14.352051497
C       14.460553578   4.578810212  15.550246706
C       10.774176061   9.889914614  13.040848765
C       11.285484744  10.105322424  15.545235016
C       14.046087347   4.257867497  13.041380091
C        7.053693377   3.186918428  13.985342545
C        6.348776424   4.414739847  13.979871478
C        4.973435430   4.455742536  13.717124830
C        4.326416313   3.239131541  13.452017075
C        5.021858056   2.027692025  13.456871887
C        6.397778682   1.975866902  13.727785593
C        8.550791645   4.865787386  14.379451770
C        7.042983454   6.851524817  14.362410268
C        9.511234821   2.565588642  14.371624042
C        9.323277548   1.625700110  15.565013997
C        6.549666218   7.473609096  13.052532701
C        6.143243951   7.157576181  15.562184689
C        9.808467255   1.836929200  13.057668650
H       13.655102571  10.703963027  13.665512551
H       16.095382905  10.633428290  13.194097463
H       17.336132404   8.495166492  13.206277826
H       16.183987631   6.345655255  13.687052196
H       10.233133836   8.502259546  14.585688615
H       12.555787745   4.473818157  14.571153318
H       15.463542987   5.013435872  15.432881125
H       14.574327813   3.490389390  15.660947114
H       14.021253474   4.975159983  16.476905426
H       11.602390798  10.534870208  12.711591964
H        9.882845256  10.522667741  13.169875442
H       10.565960432   9.163357244  12.242146668
H       10.404838323  10.754840543  15.654337326
H       12.167946511  10.749594349  15.422945025
H       15.021757062   4.656390021  12.726111552
H       11.405901194   9.532375100  16.475900451
H       14.149282405   3.168995806  13.165319234
H       13.322814436   4.444113634  12.234601346
H        4.416660571   5.392325881  13.701356885
H        3.258530243   3.245073260  13.223923909
H        4.489466424   1.100851604  13.232297805
H        6.926388367   1.023117980  13.720467969
H        8.046415432   7.258978440  14.575852073
H       10.364429061   3.229822770  14.593482726
H        8.443900941   0.976874230  15.445610876
H       10.207071067   0.979634222  15.671445864
H        9.201982057   2.199566436  16.495071539
H        5.570868582   7.078828357  12.742390595
H        6.450093781   8.562730224  13.176091977
H        7.267590956   7.285863997  12.241607180
H        6.016394189   8.245333958  15.661711928
H        5.145100869   6.709301128  15.456092658
H        8.978069873   1.188620977  12.741074757
H        6.592997051   6.778029315  16.490869543
H       10.701879397   1.205511912  13.179757608
H       10.005763645   2.559224359  12.252804031
N       13.310695095   6.325261562  14.217038947
N       12.210453260   8.228768184  14.214326500
N        8.382859653   3.500574943  14.242746784
N        7.287506573   5.406970048  14.233955990



     Writing output data file iPr.save/
     Message from routine punch:
     wavefunctions written to file
     NEW-OLD atomic charge density approx. for the potential

     negative rho (up, down):  2.465E-02 0.000E+00

     total cpu time spent up to now is    64544.9 secs

     Self-consistent Calculation

     iteration #  1     ecut=    32.00 Ry     beta= 0.50
     Davidson diagonalization with overlap
     ethr =  1.00E-06,  avg # of iterations =  3.0

     negative rho (up, down):  2.465E-02 0.000E+00

     total cpu time spent up to now is    64727.8 secs

     total energy              =   -1409.65186832 Ry
     Harris-Foulkes estimate   =   -1409.65177589 Ry
     estimated scf accuracy    <       0.00020988 Ry

     iteration #  2     ecut=    32.00 Ry     beta= 0.50
     Davidson diagonalization with overlap
     ethr =  1.23E-07,  avg # of iterations =  2.0

     negative rho (up, down):  2.466E-02 0.000E+00

     total cpu time spent up to now is    64872.2 secs

     total energy              =   -1409.65188849 Ry
     Harris-Foulkes estimate   =   -1409.65189128 Ry
     estimated scf accuracy    <       0.00002594 Ry

     iteration #  3     ecut=    32.00 Ry     beta= 0.50
     Davidson diagonalization with overlap
     ethr =  1.52E-08,  avg # of iterations =  2.0

     negative rho (up, down):  2.466E-02 0.000E+00

     total cpu time spent up to now is    65010.8 secs

     total energy              =   -1409.65188983 Ry
     Harris-Foulkes estimate   =   -1409.65189084 Ry
     estimated scf accuracy    <       0.00000454 Ry

     iteration #  4     ecut=    32.00 Ry     beta= 0.50
     Davidson diagonalization with overlap
     ethr =  2.66E-09,  avg # of iterations =  4.0

     negative rho (up, down):  2.466E-02 0.000E+00

     total cpu time spent up to now is    65160.2 secs

     total energy              =   -1409.65189035 Ry
     Harris-Foulkes estimate   =   -1409.65189123 Ry
     estimated scf accuracy    <       0.00000262 Ry

     iteration #  5     ecut=    32.00 Ry     beta= 0.50
     Davidson diagonalization with overlap
     ethr =  1.53E-09,  avg # of iterations =  4.0

     negative rho (up, down):  2.465E-02 0.000E+00

     total cpu time spent up to now is    65301.8 secs

     total energy              =   -1409.65189077 Ry
     Harris-Foulkes estimate   =   -1409.65189096 Ry
     estimated scf accuracy    <       0.00000057 Ry

     iteration #  6     ecut=    32.00 Ry     beta= 0.50
     Davidson diagonalization with overlap
     ethr =  3.34E-10,  avg # of iterations =  5.0

     negative rho (up, down):  2.465E-02 0.000E+00

     total cpu time spent up to now is    65440.2 secs

     total energy              =   -1409.65189088 Ry
     Harris-Foulkes estimate   =   -1409.65189091 Ry
     estimated scf accuracy    <       0.00000016 Ry

     iteration #  7     ecut=    32.00 Ry     beta= 0.50
     Davidson diagonalization with overlap
     ethr =  9.22E-11,  avg # of iterations =  4.0

     negative rho (up, down):  2.465E-02 0.000E+00

     total cpu time spent up to now is    65576.6 secs

     End of self-consistent calculation

          k = 0.0000 0.0000 0.0000 (556667 PWs)   bands (ev):

   -25.5355 -25.5260 -23.0334 -23.0301 -20.8225 -20.8134 -19.9635 -19.9533
   -19.0440 -19.0335 -18.1313 -18.0804 -18.0783 -18.0728 -17.0300 -17.0243
   -17.0228 -17.0171 -15.9915 -15.9831 -15.3886 -15.3850 -15.3137 -15.1328
   -14.0106 -13.9530 -13.7815 -13.7717 -12.4475 -12.4214 -12.3600 -12.2584
   -11.7872 -11.7180 -11.3762 -11.3450 -11.2471 -10.9674 -10.9182 -10.8073
   -10.7614 -10.7455 -10.4348 -10.4263 -10.3585 -10.3286 -10.2190 -10.1866
   -10.0682  -9.7420  -9.7312  -9.4758  -9.4502  -9.4094  -9.4034  -9.2428
    -9.2403  -8.9626  -8.9511  -8.6494  -8.6471  -8.6310  -8.5832  -8.5696
    -8.4724  -8.4712  -8.4549  -8.1757  -8.0462  -7.9024  -7.8952  -7.8714
    -7.6869  -7.1495  -7.0515  -7.0502  -6.9663  -6.8682  -6.5562  -6.4636
    -5.7821  -5.5658  -5.3732  -5.3695  -5.1772  -1.8585  -1.1476  -0.8527
    -0.7269  -0.4795  -0.4083  -0.3974  -0.3838  -0.3542  -0.2816  -0.2354
    -0.2139  -0.1380  -0.0721  -0.0382  -0.0126   0.0036   0.0153

     the Fermi energy is    -1.8586 ev

!    total energy              =   -1409.65189090 Ry
     Harris-Foulkes estimate   =   -1409.65189090 Ry
     estimated scf accuracy    <          3.3E-09 Ry

     total all-electron energy =    -40485.559546 Ry

     The total energy is the sum of the following terms:

     one-electron contribution =   -4784.01212430 Ry
     hartree contribution      =    2419.24975642 Ry
     xc contribution           =    -201.00077422 Ry
     ewald contribution        =    2040.83742708 Ry
     one-center paw contrib.   =    -884.71487983 Ry
     smearing contrib. (-TS)   =      -0.01129605 Ry

     convergence has been achieved in   7 iterations

     negative rho (up, down):  2.465E-02 0.000E+00

     Forces acting on atoms (cartesian axes, Ry/au):

     atom    1 type  4   force =    -0.00026568   -0.00007643    0.00048812
     atom    2 type  1   force =    -0.00018464   -0.00033189   -0.00044559
     atom    3 type  1   force =    -0.00040085   -0.00005138   -0.00062155
     atom    4 type  1   force =     0.00003305   -0.00004455    0.00022073
     atom    5 type  1   force =     0.00014813    0.00036445   -0.00007135
     atom    6 type  1   force =     0.00025838    0.00022154   -0.00007702
     atom    7 type  1   force =     0.00021991    0.00015173    0.00047874
     atom    8 type  1   force =    -0.00034040   -0.00026440   -0.00027885
     atom    9 type  1   force =     0.00009465    0.00016994   -0.00002492
     atom   10 type  1   force =     0.00011728   -0.00001930   -0.00013762
     atom   11 type  1   force =     0.00054199   -0.00028792    0.00041224
     atom   12 type  1   force =     0.00000986   -0.00020612   -0.00012677
     atom   13 type  1   force =    -0.00003575    0.00061848    0.00049456
     atom   14 type  1   force =    -0.00013643    0.00009169   -0.00024066
     atom   15 type  1   force =     0.00032506   -0.00013930   -0.00108794
     atom   16 type  1   force =     0.00016866   -0.00002921   -0.00100019
     atom   17 type  1   force =     0.00008167    0.00001757    0.00028535
     atom   18 type  1   force =    -0.00014192    0.00009305   -0.00060279
     atom   19 type  1   force =    -0.00017357    0.00002207   -0.00044633
     atom   20 type  1   force =    -0.00014297    0.00001363    0.00018851
     atom   21 type  1   force =     0.00023573   -0.00005595   -0.00076218
     atom   22 type  1   force =    -0.00043014   -0.00010334   -0.00017868
     atom   23 type  1   force =    -0.00022783   -0.00021242   -0.00016488
     atom   24 type  1   force =     0.00008161   -0.00064486    0.00038857
     atom   25 type  1   force =     0.00040330   -0.00007139   -0.00049793
     atom   26 type  1   force =    -0.00050124    0.00037966    0.00066829
     atom   27 type  1   force =     0.00001101    0.00020846   -0.00029078
     atom   28 type  2   force =     0.00000321    0.00008140    0.00049457
     atom   29 type  2   force =     0.00037806    0.00051759    0.00052096
     atom   30 type  2   force =     0.00055390    0.00009599    0.00045178
     atom   31 type  2   force =    -0.00018741   -0.00002856    0.00032879
     atom   32 type  2   force =     0.00017199    0.00035594   -0.00033833
     atom   33 type  2   force =     0.00022806   -0.00006216   -0.00040649
     atom   34 type  2   force =     0.00090156    0.00008371   -0.00010220
     atom   35 type  2   force =     0.00023848   -0.00058742    0.00043041
     atom   36 type  2   force =    -0.00018549    0.00050957    0.00013574
     atom   37 type  2   force =    -0.00022658   -0.00009081    0.00044602
     atom   38 type  2   force =     0.00028189    0.00005796   -0.00002622
     atom   39 type  2   force =     0.00053476   -0.00018413   -0.00048353
     atom   40 type  2   force =    -0.00063913    0.00075932    0.00038659
     atom   41 type  2   force =     0.00037831    0.00052590   -0.00035080
     atom   42 type  2   force =    -0.00011389   -0.00022077    0.00044821
     atom   43 type  2   force =     0.00058069   -0.00061840   -0.00003512
     atom   44 type  2   force =     0.00011650    0.00031527    0.00004091
     atom   45 type  2   force =    -0.00012948    0.00050832   -0.00062096
     atom   46 type  2   force =     0.00008747   -0.00019632    0.00023718
     atom   47 type  2   force =    -0.00058527   -0.00012668    0.00079935
     atom   48 type  2   force =    -0.00021618   -0.00022782    0.00089365
     atom   49 type  2   force =     0.00014395    0.00008525    0.00015932
     atom   50 type  2   force =    -0.00047363    0.00015320   -0.00020160
     atom   51 type  2   force =    -0.00000868   -0.00034808   -0.00032354
     atom   52 type  2   force =    -0.00059742   -0.00073196   -0.00006991
     atom   53 type  2   force =     0.00055502   -0.00030485    0.00030576
     atom   54 type  2   force =    -0.00033906    0.00027595    0.00002872
     atom   55 type  2   force =     0.00017817   -0.00001370    0.00053303
     atom   56 type  2   force =    -0.00008779   -0.00013251    0.00008325
     atom   57 type  2   force =     0.00038635   -0.00084760   -0.00067366
     atom   58 type  2   force =    -0.00024494    0.00097229    0.00042285
     atom   59 type  2   force =    -0.00089577   -0.00019960   -0.00023672
     atom   60 type  2   force =    -0.00005453    0.00002233    0.00046409
     atom   61 type  2   force =     0.00009377   -0.00079504    0.00011863
     atom   62 type  2   force =    -0.00028423    0.00013888   -0.00012695
     atom   63 type  2   force =    -0.00032212    0.00053993   -0.00060341
     atom   64 type  3   force =    -0.00012007    0.00001508    0.00015510
     atom   65 type  3   force =     0.00001279   -0.00014900    0.00027535
     atom   66 type  3   force =     0.00009374   -0.00015351   -0.00000926
     atom   67 type  3   force =     0.00004413    0.00019123   -0.00012059

     Total force =     0.005251     Total SCF correction =     0.000103

     number of scf cycles    =  54
     number of bfgs steps    =  53

     energy   old            =   -1409.6518385282 Ry
     energy   new            =   -1409.6518908962 Ry

     CASE: energy  _new < energy  _old

     new trust radius        =       0.0185711014 bohr
     new conv_thr            =       0.0000000100 Ry


ATOMIC_POSITIONS (angstrom)
Au      10.299836962   5.864304546  14.462913212
C       14.248331835   7.318966040  13.956884883
C       13.538668023   8.544078391  13.953741166
C       14.189917871   9.755307018  13.688439240
C       15.566413151   9.706976011  13.422217705
C       16.267479428   8.498665626  13.427690648
C       15.624760686   7.281139677  13.697777211
C       12.046979966   6.864934372  14.361313047
C       11.085446023   9.165488995  14.353200062
C       13.558824273   4.882249185  14.351492726
C       14.463389959   4.577878588  15.548381400
C       10.775794886   9.891583901  13.039936984
C       11.285729469  10.107840200  15.543232380
C       14.048945891   4.258627497  13.040638952
C        7.052224276   3.186109725  13.985448706
C        6.347300175   4.413696033  13.980112830
C        4.971800905   4.454773834  13.719587813
C        4.325101620   3.237959979  13.454519501
C        5.020354206   2.026504535  13.459621555
C        6.396194970   1.974778834  13.730360860
C        8.549988640   4.865099889  14.378189790
C        7.042020803   6.850600742  14.361513601
C        9.510025257   2.564922567  14.370114883
C        9.322486680   1.623195146  15.562316375
C        6.548270788   7.473268849  13.051602623
C        6.140434958   7.158276306  15.559592669
C        9.806517394   1.834889546  13.056291182
H       13.656700927  10.705196839  13.670350505
H       16.096155632  10.634716056  13.197641484
H       17.337359080   8.495735986  13.209790262
H       16.185625342   6.347206411  13.691543242
H       10.232453329   8.504388308  14.586419869
H       12.557768523   4.472258268  14.571348244
H       15.467526597   5.009335270  15.427425611
H       14.574997284   3.489404400  15.660443626
H       14.027619973   4.975569586  16.476195808
H       11.603019714  10.539620086  12.713969570
H        9.882747560  10.522502592  13.166956000
H       10.570896870   9.166760451  12.238835114
H       10.403140840  10.754431298  15.653672993
H       12.165106322  10.755833813  15.417553951
H       15.026643947   4.654630737  12.728431021
H       11.410206831   9.537842867  16.475215985
H       14.149969635   3.169230477  13.162813190
H       13.328656544   4.447311092  12.231697284
H        4.414557741   5.390951243  13.707713096
H        3.257019158   3.244199184  13.228113947
H        4.488302682   1.099161911  13.237043193
H        6.924951298   1.022139942  13.726509714
H        8.044833131   7.259612645  14.576721437
H       10.364575501   3.227653687  14.592665709
H        8.445707185   0.971262303  15.439417756
H       10.207607148   0.979355863  15.669863368
H        9.197667411   2.193932805  16.493823854
H        5.567063113   7.082268118  12.743359261
H        6.451827880   8.562855950  13.174433994
H        7.264048037   7.283087087  12.239428091
H        6.017695656   8.246429517  15.659063370
H        5.140323249   6.714802524  15.449498202
H        8.977365471   1.183488088  12.742077829
H        6.584620269   6.777057358  16.490251576
H       10.701194896   1.205058953  13.177487834
H       10.000875984   2.555851137  12.249435451
N       13.312003294   6.326228289  14.218715622
N       12.211707265   8.229321841  14.215609528
N        8.381621713   3.499852630  14.242702131
N        7.286431596   5.406243569  14.234122628



     Writing output data file iPr.save/
     Message from routine punch:
     wavefunctions written to file
     NEW-OLD atomic charge density approx. for the potential

     negative rho (up, down):  2.464E-02 0.000E+00

     Writing output data file iPr.save/

     init_run     :     49.08s CPU     52.27s WALL (       1 calls)
     electrons    :  55798.11s CPU  58060.65s WALL (      50 calls)
     update_pot   :    874.81s CPU    894.94s WALL (      50 calls)
     forces       :   4933.41s CPU   5127.40s WALL (      50 calls)

     Called by init_run:
     wfcinit      :      0.08s CPU      0.13s WALL (       1 calls)
     potinit      :      4.84s CPU      5.32s WALL (       1 calls)
     hinit0       :     11.70s CPU     11.86s WALL (       1 calls)

     Called by electrons:
     c_bands      :  29859.83s CPU  30083.50s WALL (     392 calls)
     sum_band     :  16426.36s CPU  17363.25s WALL (     392 calls)
     v_of_rho     :   1493.16s CPU   1594.25s WALL (     427 calls)
     newd         :   8557.57s CPU   9532.70s WALL (     427 calls)
     PAW_pot      :    192.94s CPU    193.52s WALL (     477 calls)
     mix_rho      :    291.31s CPU    300.15s WALL (     392 calls)

     Called by c_bands:
     init_us_2    :     91.91s CPU     92.34s WALL (     834 calls)
     cegterg      :  29739.59s CPU  29962.54s WALL (     392 calls)

     Called by sum_band:
     sum_band:bec :      0.35s CPU      0.36s WALL (     442 calls)
     addusdens    :  12472.17s CPU  13376.75s WALL (     392 calls)

     Called by *egterg:
     h_psi        :  16783.03s CPU  16940.52s WALL (    1846 calls)
     s_psi        :   4414.83s CPU   4425.37s WALL (    1846 calls)
     g_psi        :     13.04s CPU     13.13s WALL (    1454 calls)
     cdiaghg      :    113.22s CPU    113.61s WALL (    1780 calls)

     Called by h_psi:
     h_psi:pot    :  16747.29s CPU  16885.77s WALL (    1846 calls)
     h_psi:calbec :   4405.62s CPU   4416.42s WALL (    1846 calls)
     vloc_psi     :   7934.63s CPU   8051.84s WALL (    1846 calls)
     add_vuspsi   :   4407.02s CPU   4417.50s WALL (    1846 calls)

     General routines
     calbec       :   7361.24s CPU   7379.54s WALL (    2488 calls)
     fft          :   1856.49s CPU   1966.53s WALL (    6067 calls)
     ffts         :     61.79s CPU     63.68s WALL (     819 calls)
     fftw         :   8405.57s CPU   8538.99s WALL (  237482 calls)
     interpolate  :    162.15s CPU    168.38s WALL (     427 calls)
     davcio       :      0.01s CPU      1.87s WALL (      51 calls)

     Parallel routines
     fft_scatt_xy :   1362.60s CPU   1368.96s WALL (  244368 calls)
     fft_scatt_yz :   1776.53s CPU   1944.36s WALL (  244368 calls)

     PWSCF        :     17h29m CPU     18h15m WALL


   This run was terminated on:  14:12: 3  19Jan2021            

=------------------------------------------------------------------------------=
   JOB DONE.
=------------------------------------------------------------------------------=
