
     Program PWSCF v.6.4.1 starts on  2Dec2020 at 18: 2:25 

     This program is part of the open-source Quantum ESPRESSO suite
     for quantum simulation of materials; please cite
         "P. Giannozzi et al., J. Phys.:Condens. Matter 21 395502 (2009);
         "P. Giannozzi et al., J. Phys.:Condens. Matter 29 465901 (2017);
          URL http://www.quantum-espresso.org", 
     in publications or presentations arising from this work. More details at
     http://www.quantum-espresso.org/quote

     Parallel version (MPI), running on     8 processors

     MPI processes distributed on     1 nodes
     R & G space division:  proc/nbgrp/npool/nimage =       8
     Waiting for input...
     Reading input from standard input

     Current dimensions of program PWSCF are:
     Max number of different atomic species (ntypx) = 10
     Max number of k-points (npk) =  40000
     Max angular momentum in pseudopotentials (lmaxx) =  3

     IMPORTANT: XC functional enforced from input :
     Exchange-correlation      = VDW-DF ( 1  4  4  0 1 0)
     Any further DFT definition will be discarded
     Please, verify this is what you really want

               file C.pbe-rrkjus.UPF: wavefunction(s)  2S 2P renormalized

     Subspace diagonalization in iterative solution of the eigenvalue problem:
     a serial algorithm will be used

     Message from routine setup:
     DEPRECATED: symmetry with ibrav=0, use correct ibrav instead

     Parallelization info
     --------------------
     sticks:   dense  smooth     PW     G-vecs:    dense   smooth      PW
     Min         714     285     79               126154    31889    4649
     Max         715     286     80               126163    31900    4658
     Sum        5713    2283    637              1009261   255153   37237



     bravais-lattice index     =            0
     lattice parameter (alat)  =       4.6487  a.u.
     unit-cell volume          =   10440.3175 (a.u.)^3
     number of atoms/cell      =           36
     number of atomic types    =            2
     number of electrons       =       126.00
     number of Kohn-Sham states=           76
     kinetic-energy cutoff     =      32.0000  Ry
     charge density cutoff     =     320.0000  Ry
     convergence threshold     =      1.0E-06
     mixing beta               =       0.5000
     number of iterations used =            8  plain     mixing
     Exchange-correlation      = VDW-DF ( 1  4  4  0 1 0)
     nstep                     =          200


     celldm(1)=   4.648726  celldm(2)=   0.000000  celldm(3)=   0.000000
     celldm(4)=   0.000000  celldm(5)=   0.000000  celldm(6)=   0.000000

     crystal axes: (cart. coord. in units of alat)
               a(1) = (   3.000000   0.000000   0.000000 )  
               a(2) = (   0.000000   3.464102   0.000000 )  
               a(3) = (   0.000000   0.000000  10.000000 )  

     reciprocal axes: (cart. coord. in units 2 pi/alat)
               b(1) = (  0.333333  0.000000  0.000000 )  
               b(2) = (  0.000000  0.288675  0.000000 )  
               b(3) = (  0.000000  0.000000  0.100000 )  


     PseudoPot. # 1 for C  read from file:
     ../../pseudopotentials/C.pbe-rrkjus.UPF
     MD5 check sum: 00fb224312de0c5b6853bd333518df6f
     Pseudo is Ultrasoft, Zval =  4.0
     Generated by new atomic code, or converted to UPF format
     Using radial grid of  627 points,  4 beta functions with: 
                l(1) =   0
                l(2) =   0
                l(3) =   1
                l(4) =   1
     Q(r) pseudized with 0 coefficients 


     PseudoPot. # 2 for H  read from file:
     ../../pseudopotentials/H.pbe-rrkjus_psl.1.0.0.UPF
     MD5 check sum: 3f4114867bd07edc7f1424d066fc1888
     Pseudo is Ultrasoft, Zval =  1.0
     Generated using "atomic" code by A. Dal Corso v.6.3MaX
     Using radial grid of  929 points,  2 beta functions with: 
                l(1) =   0
                l(2) =   0
     Q(r) pseudized with 0 coefficients 


     vdW kernel table read from file vdW_kernel_table
     MD5 check sum: 48e77a2e26edf626eeb0eaa751ad5cac

     atomic species   valence    mass     pseudopotential
        C              4.00    12.01070     C ( 1.00)
        H              1.00     1.00790     H ( 1.00)

      4 Sym. Ops. (no inversion) found ( 2 have fractional translation)



   Cartesian axes

     site n.     atom                  positions (alat units)
         1           C   tau(   1) = (   0.5000000   0.0000000   0.0000000  )
         2           C   tau(   2) = (   0.0000000   0.2886752   0.0000000  )
         3           C   tau(   3) = (   0.0000000   0.8660255   0.0000000  )
         4           C   tau(   4) = (   0.5000000   1.1547006   0.0000000  )
         5           C   tau(   5) = (   0.5000000   1.7320509   0.0000000  )
         6           C   tau(   6) = (   0.0000000   2.0207261   0.0000000  )
         7           C   tau(   7) = (   0.0000000   2.5980764   0.0000000  )
         8           C   tau(   8) = (   0.5000000   2.8867516   0.0000000  )
         9           C   tau(   9) = (   1.5000001   0.0000000   0.0000000  )
        10           C   tau(  10) = (   1.0000001   0.2886752   0.0000000  )
        11           C   tau(  11) = (   1.0000001   0.8660255   0.0000000  )
        12           C   tau(  12) = (   1.5000001   1.1547006   0.0000000  )
        13           C   tau(  13) = (   1.5000001   1.7320509   0.0000000  )
        14           C   tau(  14) = (   1.0000001   2.0207261   0.0000000  )
        15           C   tau(  15) = (   1.0000001   2.5980764   0.0000000  )
        16           C   tau(  16) = (   1.5000001   2.8867516   0.0000000  )
        17           C   tau(  17) = (   2.5000002   0.0000000   0.0000000  )
        18           C   tau(  18) = (   2.0000002   0.2886752   0.0000000  )
        19           C   tau(  19) = (   2.0000002   0.8660255   0.0000000  )
        20           C   tau(  20) = (   2.5000002   1.1547006   0.0000000  )
        21           C   tau(  21) = (   2.5000002   1.7320509   0.0000000  )
        22           C   tau(  22) = (   2.0000002   2.0207261   0.0000000  )
        23           C   tau(  23) = (   2.0000002   2.5980764   0.0000000  )
        24           C   tau(  24) = (   2.5000002   2.8867516   0.0000000  )
        25           C   tau(  25) = (   1.5000001   0.8763591   1.2195123  )
        26           C   tau(  26) = (   1.0090387   1.1598654   1.2195123  )
        27           C   tau(  27) = (   1.0090387   1.7268862   1.2195123  )
        28           C   tau(  28) = (   1.5000001   2.0103924   1.2195123  )
        29           C   tau(  29) = (   1.9909616   1.7268862   1.2195123  )
        30           C   tau(  30) = (   1.9909616   1.1598654   1.2195123  )
        31           H   tau(  31) = (   1.5000001   0.4329660   1.2195123  )
        32           H   tau(  32) = (   0.6250718   0.9382529   1.2195123  )
        33           H   tau(  33) = (   0.6250718   1.9484987   1.2195123  )
        34           H   tau(  34) = (   1.5000001   2.4537855   1.2195123  )
        35           H   tau(  35) = (   2.3749284   1.9484987   1.2195123  )
        36           H   tau(  36) = (   2.3749284   0.9382529   1.2195123  )

     number of k points=     9  gaussian smearing, width (Ry)=  0.0200
                       cart. coord. in units 2pi/alat
        k(    1) = (   0.0000000   0.0000000   0.0000000), wk =   0.1250000
        k(    2) = (   0.0000000   0.0721688   0.0000000), wk =   0.2500000
        k(    3) = (   0.0000000  -0.1443376   0.0000000), wk =   0.1250000
        k(    4) = (   0.0833333   0.0000000   0.0000000), wk =   0.2500000
        k(    5) = (   0.0833333   0.0721688   0.0000000), wk =   0.5000000
        k(    6) = (   0.0833333  -0.1443376   0.0000000), wk =   0.2500000
        k(    7) = (  -0.1666667   0.0000000   0.0000000), wk =   0.1250000
        k(    8) = (  -0.1666667   0.0721688   0.0000000), wk =   0.2500000
        k(    9) = (  -0.1666667  -0.1443376   0.0000000), wk =   0.1250000

     Dense  grid:  1009261 G-vectors     FFT dimensions: (  80,  96, 270)

     Smooth grid:   255153 G-vectors     FFT dimensions: (  54,  60, 180)

     Estimated max dynamical RAM per process >     423.54 MB

     Estimated total dynamical RAM >       3.31 GB

     Initial potential from superposition of free atoms

     starting charge  125.99836, renormalised to  126.00000

     negative rho (up, down):  2.481E-04 0.000E+00


     %%%%%%%%%%%%%%%%%%%%%%%%%%%%%%%%%%%%%%%%%%%%%%%%%%%%%%%%%%%%%%%%%%%%%%%%
     %                                                                      %
     % You are using vdW-DF, which was implemented by the Thonhauser group. %
     % Please cite the following two papers that made this development      %
     % possible and the two reviews that describe the various versions:     %
     %                                                                      %
     %   T. Thonhauser et al., PRL 115, 136402 (2015).                      %
     %   T. Thonhauser et al., PRB 76, 125112 (2007).                       %
     %   K. Berland et al., Rep. Prog. Phys. 78, 066501 (2015).             %
     %   D.C. Langreth et al., J. Phys.: Condens. Matter 21, 084203 (2009). %
     %                                                                      %
     %                                                                      %
     % If you are calculating the stress with vdW-DF, please also cite:     %
     %                                                                      %
     %   R. Sabatini et al., J. Phys.: Condens. Matter 24, 424209 (2012).   %
     %                                                                      %
     %%%%%%%%%%%%%%%%%%%%%%%%%%%%%%%%%%%%%%%%%%%%%%%%%%%%%%%%%%%%%%%%%%%%%%%%


     Starting wfcs are  126 randomized atomic wfcs

     total cpu time spent up to now is       19.0 secs

     Self-consistent Calculation

     iteration #  1     ecut=    32.00 Ry     beta= 0.50
     Davidson diagonalization with overlap
     ethr =  1.00E-02,  avg # of iterations =  2.0

     negative rho (up, down):  2.108E-04 0.000E+00

     total cpu time spent up to now is       52.7 secs

     total energy              =    -350.86825052 Ry
     Harris-Foulkes estimate   =    -352.96810531 Ry
     estimated scf accuracy    <       4.24528173 Ry

     iteration #  2     ecut=    32.00 Ry     beta= 0.50
     Davidson diagonalization with overlap
     ethr =  3.37E-03,  avg # of iterations =  5.3

     negative rho (up, down):  5.200E-04 0.000E+00

     total cpu time spent up to now is       81.6 secs

     total energy              =    -351.20624917 Ry
     Harris-Foulkes estimate   =    -351.36135778 Ry
     estimated scf accuracy    <       0.39549934 Ry

     iteration #  3     ecut=    32.00 Ry     beta= 0.50
     Davidson diagonalization with overlap
     ethr =  3.14E-04,  avg # of iterations = 11.1

     negative rho (up, down):  4.437E-04 0.000E+00

     total cpu time spent up to now is      115.4 secs

     total energy              =    -351.24453265 Ry
     Harris-Foulkes estimate   =    -351.26164706 Ry
     estimated scf accuracy    <       0.05319938 Ry

     iteration #  4     ecut=    32.00 Ry     beta= 0.50
     Davidson diagonalization with overlap
     ethr =  4.22E-05,  avg # of iterations =  6.6

     negative rho (up, down):  2.896E-04 0.000E+00

     total cpu time spent up to now is      147.0 secs

     total energy              =    -351.25263206 Ry
     Harris-Foulkes estimate   =    -351.25803982 Ry
     estimated scf accuracy    <       0.01659521 Ry

     iteration #  5     ecut=    32.00 Ry     beta= 0.50
     Davidson diagonalization with overlap
     ethr =  1.32E-05,  avg # of iterations =  3.7

     negative rho (up, down):  3.030E-04 0.000E+00

     total cpu time spent up to now is      174.2 secs

     total energy              =    -351.25598767 Ry
     Harris-Foulkes estimate   =    -351.25631550 Ry
     estimated scf accuracy    <       0.00260653 Ry

     iteration #  6     ecut=    32.00 Ry     beta= 0.50
     Davidson diagonalization with overlap
     c_bands:  1 eigenvalues not converged
     ethr =  2.07E-06,  avg # of iterations =  7.8

     negative rho (up, down):  2.437E-04 0.000E+00

     total cpu time spent up to now is      204.3 secs

     total energy              =    -351.25636577 Ry
     Harris-Foulkes estimate   =    -351.25644258 Ry
     estimated scf accuracy    <       0.00027055 Ry

     iteration #  7     ecut=    32.00 Ry     beta= 0.50
     Davidson diagonalization with overlap
     ethr =  2.15E-07,  avg # of iterations =  2.3

     negative rho (up, down):  2.238E-04 0.000E+00

     total cpu time spent up to now is      230.0 secs

     total energy              =    -351.25641642 Ry
     Harris-Foulkes estimate   =    -351.25641530 Ry
     estimated scf accuracy    <       0.00002190 Ry

     iteration #  8     ecut=    32.00 Ry     beta= 0.50
     Davidson diagonalization with overlap
     ethr =  1.74E-08,  avg # of iterations =  2.1

     negative rho (up, down):  2.155E-04 0.000E+00

     total cpu time spent up to now is      259.4 secs

     total energy              =    -351.25642072 Ry
     Harris-Foulkes estimate   =    -351.25642192 Ry
     estimated scf accuracy    <       0.00000398 Ry

     iteration #  9     ecut=    32.00 Ry     beta= 0.50
     Davidson diagonalization with overlap
     ethr =  3.16E-09,  avg # of iterations =  2.1

     negative rho (up, down):  2.122E-04 0.000E+00

     total cpu time spent up to now is      285.9 secs

     End of self-consistent calculation

          k = 0.0000 0.0000 0.0000 ( 31971 PWs)   bands (ev):

   -21.9146 -20.4611 -20.4571 -19.9888 -19.9766 -19.5542 -18.5738 -18.5693
   -18.5642 -18.5631 -16.8455 -16.8155 -16.7023 -15.6397 -15.0608 -15.0601
   -15.0590 -15.0587 -13.2575 -13.2241 -13.0828 -13.0826 -13.0824 -13.0808
   -12.9442 -12.9365 -11.3389 -10.2684 -10.2674 -10.0109  -9.9212  -9.9193
    -9.7036  -9.3215  -9.0911  -9.0894  -9.0794  -9.0753  -8.9415  -8.9054
    -8.9034  -8.7536  -8.6623  -8.3959  -8.2221  -7.8278  -7.7037  -7.5878
    -7.5866  -7.0358  -6.7751  -6.7087  -6.2074  -6.2036  -6.1292  -6.0646
    -5.6164  -5.6152  -4.9086  -4.4863  -4.3338  -2.3940  -2.3765  -2.3616
    -2.3433  -0.7089  -0.0534   0.4279   0.5828   0.6988   1.3623   1.3648
     1.3683   1.3850   1.5736   1.9808

          k = 0.0000 0.0722 0.0000 ( 31929 PWs)   bands (ev):

   -21.8228 -21.0921 -19.9015 -19.8871 -19.6661 -19.5441 -19.1769 -19.1731
   -17.8045 -17.8008 -17.5895 -16.8165 -16.8155 -15.9324 -15.9308 -14.6482
   -14.5308 -14.5303 -13.6843 -13.6834 -13.2419 -13.2221 -12.4226 -12.4224
   -12.3578 -12.3577 -11.5535 -11.3293 -10.7288 -10.7276 -10.1269 -10.1241
    -9.9111  -9.7124  -9.3199  -9.1081  -8.8511  -8.6737  -8.6608  -8.5932
    -8.5913  -8.4211  -8.4179  -8.3439  -8.1512  -7.7883  -7.6084  -7.4230
    -7.0863  -6.9414  -6.8526  -6.7559  -6.6821  -6.6561  -5.9810  -5.8062
    -5.4288  -5.3604  -5.2728  -4.4848  -4.4228  -3.3936  -3.3545  -1.3897
    -1.3880  -0.0866   0.0916   0.3564   0.4495   0.6019   0.6143   0.8291
     1.2945   1.7843   1.8610   2.2050

          k = 0.0000-0.1443 0.0000 ( 31940 PWs)   bands (ev):

   -21.5569 -21.5391 -19.6730 -19.6341 -19.6296 -19.6090 -19.5036 -18.6828
   -18.6826 -16.9369 -16.9187 -16.9060 -16.8994 -16.8020 -16.7862 -14.1590
   -14.1573 -14.1422 -14.1388 -13.2461 -13.2226 -13.1577 -13.1436 -11.5493
   -11.5474 -11.5381 -11.5370 -11.3310 -11.3270 -11.3256 -11.3177 -11.3086
    -9.7222  -9.6169  -9.5961  -9.3191  -8.7063  -8.6614  -8.5958  -8.5655
    -8.2875  -8.2829  -8.2753  -8.2745  -7.6334  -7.3277  -7.3176  -7.3134
    -6.9768  -6.9585  -6.8924  -6.7275  -6.6950  -6.3514  -6.3128  -6.2891
    -6.2297  -4.7362  -4.6176  -4.3994  -4.3804  -4.2930  -4.1363  -0.5031
    -0.4707  -0.4366  -0.4247   0.3474   0.4495   0.5823   0.8619   1.2006
     1.2459   1.4238   1.4916   2.0521

          k = 0.0833 0.0000 0.0000 ( 31951 PWs)   bands (ev):

   -21.7922 -20.8202 -20.3417 -20.3372 -19.5738 -19.3860 -19.3686 -18.9157
   -17.5607 -17.5603 -16.8322 -16.8233 -16.6105 -16.2743 -15.7863 -15.5386
   -14.8874 -14.6248 -14.6230 -14.1311 -13.2355 -13.2301 -12.4097 -12.1637
   -11.7095 -11.4914 -11.4911 -11.3034 -10.1835  -9.9459  -9.9449  -9.8765
    -9.6687  -9.4512  -9.3234  -9.1589  -9.1584  -8.9828  -8.9825  -8.8689
    -8.7478  -8.7203  -8.5949  -8.2316  -8.1024  -8.0427  -8.0415  -7.6663
    -7.2922  -7.0787  -6.8896  -6.7259  -6.7248  -6.4477  -6.0884  -5.8767
    -5.2528  -5.2522  -4.8097  -4.5224  -4.3033  -3.6524  -3.3588  -1.4166
    -1.1002  -0.7411  -0.0173  -0.0075   0.1604   0.4881   0.5451   0.8728
     1.5518   1.7356   2.1507   2.2098

          k = 0.0833 0.0722 0.0000 ( 31951 PWs)   bands (ev):

   -21.7006 -20.9711 -20.7297 -20.0119 -19.5871 -19.5033 -18.8285 -18.5975
   -18.1397 -17.4796 -16.8874 -16.8206 -16.8134 -16.6024 -16.2387 -15.1406
   -14.6513 -14.5570 -14.0400 -13.9160 -13.2315 -13.2310 -12.2212 -12.2106
   -11.9885 -11.7791 -11.5174 -11.2961 -10.7271 -10.3429  -9.7757  -9.7299
    -9.6885  -9.6750  -9.3611  -9.3200  -9.1527  -8.9857  -8.8172  -8.7716
    -8.6642  -8.6371  -8.5071  -8.4784  -8.1590  -7.8170  -7.5241  -7.3442
    -7.3360  -6.9789  -6.7747  -6.7363  -6.4294  -6.3847  -6.1419  -6.0469
    -5.7556  -5.2071  -4.7031  -4.5227  -4.4558  -3.9529  -3.7746  -1.0660
    -0.7352  -0.5481  -0.1031   0.2785   0.5120   0.5268   0.6899   1.0026
     1.4362   1.6107   1.6833   1.9319

          k = 0.0833-0.1443 0.0000 ( 31876 PWs)   bands (ev):

   -21.4351 -21.4173 -20.4672 -20.4509 -19.5602 -18.5795 -18.5687 -18.5675
   -18.5557 -17.6629 -17.6614 -16.8237 -16.8156 -16.3168 -16.3035 -15.2524
   -15.2494 -13.2389 -13.2334 -13.0884 -13.0871 -13.0768 -13.0731 -13.0132
   -13.0017 -11.3981 -11.3787 -11.2883 -10.7074 -10.6977  -9.9234  -9.9163
    -9.6839  -9.4887  -9.4546  -9.3236  -9.0961  -9.0887  -9.0784  -9.0695
    -8.7647  -8.7026  -8.3034  -8.2605  -7.5927  -7.5834  -7.2722  -7.2603
    -7.1196  -6.7676  -6.7491  -6.6093  -6.5960  -6.2235  -6.1520  -6.1520
    -6.1016  -5.2120  -5.1247  -4.5090  -4.3881  -4.1273  -4.1233  -0.9087
    -0.8995   0.3872   0.4116   0.5027   0.5108   0.5568   1.0476   1.3373
     1.3734   1.3853   1.3855   1.3901

          k =-0.1667 0.0000 0.0000 ( 31854 PWs)   bands (ev):

   -21.4298 -21.4227 -19.9910 -19.9843 -19.9826 -19.9733 -19.5423 -17.6642
   -17.6600 -16.8310 -16.8269 -16.7301 -16.7284 -16.3166 -16.2948 -15.6382
   -15.6346 -15.2589 -15.2465 -13.2496 -13.2234 -13.0081 -12.9991 -11.3914
   -11.3892 -11.2665 -10.7074 -10.6974 -10.2715 -10.2705 -10.2650 -10.2643
    -9.6327  -9.4820  -9.4669  -9.3280  -8.9430  -8.9428  -8.9060  -8.9059
    -8.9050  -8.9025  -8.7322  -8.6946  -7.9526  -7.7282  -7.7154  -7.7099
    -7.2703  -7.2602  -6.9231  -6.7993  -6.7360  -6.6104  -6.5983  -5.2406
    -5.0953  -4.7439  -4.7298  -4.7190  -4.4749  -4.1458  -3.9280  -0.9212
    -0.9082  -0.6519  -0.6304   0.2090   0.4527   0.5029   0.5786   0.7364
     0.8826   1.3718   1.4148   2.1963

          k =-0.1667 0.0722 0.0000 ( 31908 PWs)   bands (ev):

   -21.3385 -21.3315 -20.6122 -20.6064 -19.5631 -19.1854 -19.1679 -17.5822
   -17.5780 -17.1540 -17.1528 -16.9904 -16.9813 -16.8195 -16.8050 -15.2375
   -15.2359 -14.3114 -14.2987 -13.5646 -13.5600 -13.2360 -13.2198 -11.5188
   -11.5087 -11.2607 -10.8201 -10.8200 -10.6040 -10.5940  -9.7407  -9.7286
    -9.6377  -9.3852  -9.3621  -9.3296  -9.2510  -9.2500  -9.2117  -9.2109
    -8.7696  -8.7618  -8.4541  -8.4112  -7.9002  -7.8978  -7.6330  -7.6263
    -7.2036  -6.9159  -6.7889  -6.7041  -6.6432  -6.6366  -6.6227  -5.1966
    -5.0559  -4.9411  -4.8369  -4.7913  -4.7065  -4.4287  -4.2443  -0.4988
    -0.4931  -0.2719  -0.2555   0.1260   0.2704   0.5554   0.6297   0.6779
     0.9919   1.5027   1.5268   1.6829

          k =-0.1667-0.1443 0.0000 ( 31784 PWs)   bands (ev):

   -21.0748 -21.0665 -21.0557 -21.0506 -19.5586 -18.2329 -18.2284 -18.2208
   -18.2192 -17.3560 -17.3454 -17.3420 -17.3208 -16.8218 -16.8141 -14.4568
   -14.4490 -14.4452 -14.4372 -13.2413 -13.2194 -12.9225 -12.9174 -12.9111
   -12.9024 -11.2538 -10.3007 -10.2922 -10.2769 -10.2654  -9.9360  -9.9264
    -9.9127  -9.9030  -9.6509  -9.3271  -9.1361  -9.1134  -9.0695  -8.9897
    -8.6397  -8.6176  -8.3755  -8.3733  -8.3724  -8.3671  -7.1006  -7.0559
    -7.0523  -7.0514  -7.0417  -6.8356  -6.7239  -5.9025  -5.7723  -5.7263
    -5.6894  -5.1125  -4.9568  -4.9445  -4.9039  -4.4084  -4.3829  -0.2304
    -0.1506  -0.0965  -0.0897   0.5364   0.5548   0.7837   1.0400   1.0778
     1.0808   1.1176   1.1790   1.3647

     the Fermi energy is    -2.3689 ev

!    total energy              =    -351.25642110 Ry
     Harris-Foulkes estimate   =    -351.25642136 Ry
     estimated scf accuracy    <       0.00000043 Ry

     The total energy is the sum of the following terms:

     one-electron contribution =   -4816.18545313 Ry
     hartree contribution      =    2428.06394805 Ry
     xc contribution           =    -112.31108002 Ry
     ewald contribution        =    2149.17897174 Ry
     smearing contrib. (-TS)   =      -0.00280773 Ry

     convergence has been achieved in   9 iterations

     Forces acting on atoms (cartesian axes, Ry/au):

     atom    1 type  1   force =     0.00048058    0.00096571    0.00074267
     atom    2 type  1   force =     0.00000000    0.00009003    0.00116125
     atom    3 type  1   force =     0.00000000    0.00112017    0.00017824
     atom    4 type  1   force =     0.00104694   -0.00062174   -0.00410779
     atom    5 type  1   force =     0.00104694    0.00062174   -0.00410779
     atom    6 type  1   force =     0.00000000   -0.00112017    0.00017824
     atom    7 type  1   force =     0.00000000   -0.00009003    0.00116125
     atom    8 type  1   force =     0.00048058   -0.00096571    0.00074267
     atom    9 type  1   force =     0.00000000   -0.00001244    0.00071607
     atom   10 type  1   force =    -0.00025416    0.00113683   -0.00126424
     atom   11 type  1   force =    -0.00025503    0.00128271   -0.00789594
     atom   12 type  1   force =     0.00000000    0.00130915   -0.00990656
     atom   13 type  1   force =     0.00000000   -0.00130915   -0.00990656
     atom   14 type  1   force =    -0.00025503   -0.00128271   -0.00789594
     atom   15 type  1   force =    -0.00025416   -0.00113683   -0.00126424
     atom   16 type  1   force =     0.00000000    0.00001244    0.00071607
     atom   17 type  1   force =    -0.00048058    0.00096571    0.00074267
     atom   18 type  1   force =     0.00025416    0.00113683   -0.00126424
     atom   19 type  1   force =     0.00025503    0.00128271   -0.00789594
     atom   20 type  1   force =    -0.00104694   -0.00062174   -0.00410779
     atom   21 type  1   force =    -0.00104694    0.00062174   -0.00410779
     atom   22 type  1   force =     0.00025503   -0.00128271   -0.00789594
     atom   23 type  1   force =     0.00025416   -0.00113683   -0.00126424
     atom   24 type  1   force =    -0.00048058   -0.00096571    0.00074267
     atom   25 type  1   force =     0.00000000   -0.00383617    0.01253573
     atom   26 type  1   force =    -0.00278151   -0.00244425    0.00992497
     atom   27 type  1   force =    -0.00278151    0.00244425    0.00992497
     atom   28 type  1   force =     0.00000000    0.00383617    0.01253573
     atom   29 type  1   force =     0.00278151    0.00244425    0.00992497
     atom   30 type  1   force =     0.00278151   -0.00244425    0.00992497
     atom   31 type  2   force =     0.00000000    0.00525818   -0.00018899
     atom   32 type  2   force =     0.00459644    0.00238763    0.00035248
     atom   33 type  2   force =     0.00459644   -0.00238763    0.00035248
     atom   34 type  2   force =     0.00000000   -0.00525818   -0.00018899
     atom   35 type  2   force =    -0.00459644   -0.00238763    0.00035248
     atom   36 type  2   force =    -0.00459644    0.00238763    0.00035248

     Total force =     0.038860     Total SCF correction =     0.001499

     BFGS Geometry Optimization

     number of scf cycles    =   1
     number of bfgs steps    =   0

     energy   new            =    -351.2564210983 Ry

     new trust radius        =       0.0131095679 bohr
     new conv_thr            =       0.0000010000 Ry


ATOMIC_POSITIONS (angstrom)
C        1.230254311   0.000511030   0.000393002
C        0.000000000   0.710188472   0.000614506
C        0.000000000   2.131015263   0.000094318
C        1.230554015   2.840234311  -0.002173751
C        1.230554015   4.261174000  -0.002173751
C        0.000000000   4.970393048   0.000094318
C        0.000000000   6.391219839   0.000614506
C        1.230254311   7.100897281   0.000393002
C        3.690000000  -0.000006582   0.000378927
C        2.459865504   0.710742414  -0.000669006
C        2.459865045   2.131101274  -0.004178354
C        3.690000000   2.841256098  -0.005242328
C        3.690000000   4.260152213  -0.005242328
C        2.459865045   4.970307037  -0.004178354
C        2.459865504   6.390665897  -0.000669006
C        3.690000000   7.101414893   0.000378927
C        6.149745689   0.000511030   0.000393002
C        4.920134496   0.710742414  -0.000669006
C        4.920134955   2.131101274  -0.004178354
C        6.149445985   2.840234311  -0.002173751
C        6.149445985   4.261174000  -0.002173751
C        4.920134955   4.970307037  -0.004178354
C        4.920134496   6.390665897  -0.000669006
C        6.149745689   7.100897281   0.000393002
C        3.690000000   2.153813324   3.006633624
C        2.480763000   2.851975184   3.005252067
C        2.480763000   4.249433127   3.005252067
C        3.690000000   4.947594987   3.006633624
C        4.899237000   4.249433127   3.005252067
C        4.899237000   2.851975184   3.005252067
H        3.690000000   1.067878865   2.999899990
H        1.540108954   2.309365421   3.000186525
H        1.540108954   4.792042890   3.000186525
H        3.690000000   6.033529446   2.999899990
H        5.839891046   4.792042890   3.000186525
H        5.839891046   2.309365421   3.000186525



     Writing output data file batch_graph+benzene.save/
     NEW-OLD atomic charge density approx. for the potential

     negative rho (up, down):  2.120E-04 0.000E+00

     total cpu time spent up to now is      300.1 secs

     Self-consistent Calculation

     iteration #  1     ecut=    32.00 Ry     beta= 0.50
     Davidson diagonalization with overlap
     ethr =  1.00E-06,  avg # of iterations =  3.0

     negative rho (up, down):  2.122E-04 0.000E+00

     total cpu time spent up to now is      338.2 secs

     total energy              =    -351.25764872 Ry
     Harris-Foulkes estimate   =    -351.25776467 Ry
     estimated scf accuracy    <       0.00027194 Ry

     iteration #  2     ecut=    32.00 Ry     beta= 0.50
     Davidson diagonalization with overlap
     ethr =  2.16E-07,  avg # of iterations =  2.0

     negative rho (up, down):  2.123E-04 0.000E+00

     total cpu time spent up to now is      365.4 secs

     total energy              =    -351.25768970 Ry
     Harris-Foulkes estimate   =    -351.25769664 Ry
     estimated scf accuracy    <       0.00003203 Ry

     iteration #  3     ecut=    32.00 Ry     beta= 0.50
     Davidson diagonalization with overlap
     ethr =  2.54E-08,  avg # of iterations =  2.0

     negative rho (up, down):  2.128E-04 0.000E+00

     total cpu time spent up to now is      391.9 secs

     total energy              =    -351.25769404 Ry
     Harris-Foulkes estimate   =    -351.25769503 Ry
     estimated scf accuracy    <       0.00000702 Ry

     iteration #  4     ecut=    32.00 Ry     beta= 0.50
     Davidson diagonalization with overlap
     ethr =  5.57E-09,  avg # of iterations =  2.0

     negative rho (up, down):  2.129E-04 0.000E+00

     total cpu time spent up to now is      418.5 secs

     total energy              =    -351.25769513 Ry
     Harris-Foulkes estimate   =    -351.25769547 Ry
     estimated scf accuracy    <       0.00000174 Ry

     iteration #  5     ecut=    32.00 Ry     beta= 0.50
     Davidson diagonalization with overlap
     ethr =  1.38E-09,  avg # of iterations =  2.2

     negative rho (up, down):  2.124E-04 0.000E+00

     total cpu time spent up to now is      444.0 secs

     End of self-consistent calculation

          k = 0.0000 0.0000 0.0000 ( 31971 PWs)   bands (ev):

   -21.9185 -20.4644 -20.4614 -19.9899 -19.9828 -19.5315 -18.5749 -18.5739
   -18.5719 -18.5664 -16.8448 -16.8086 -16.7078 -15.6415 -15.0680 -15.0658
   -15.0625 -15.0594 -13.2658 -13.2364 -13.0891 -13.0873 -13.0867 -13.0853
   -12.9497 -12.9406 -11.3490 -10.2771 -10.2727 -10.0133  -9.9239  -9.9213
    -9.7473  -9.3052  -9.0931  -9.0911  -9.0845  -9.0811  -8.9476  -8.9084
    -8.9033  -8.7665  -8.6717  -8.3934  -8.2272  -7.8254  -7.7084  -7.5950
    -7.5936  -7.0301  -6.7842  -6.7244  -6.2088  -6.2029  -6.1363  -6.0704
    -5.6240  -5.6166  -4.9075  -4.4801  -4.3402  -2.4025  -2.3814  -2.3607
    -2.3469  -0.7091  -0.0447   0.4211   0.5669   0.6980   1.3565   1.3579
     1.3636   1.3835   1.5754   1.9820

          k = 0.0000 0.0722 0.0000 ( 31929 PWs)   bands (ev):

   -21.8268 -21.0960 -19.9022 -19.8933 -19.6667 -19.5250 -19.1832 -19.1752
   -17.8069 -17.8066 -17.5937 -16.8162 -16.8086 -15.9365 -15.9352 -14.6507
   -14.5363 -14.5341 -13.6906 -13.6867 -13.2508 -13.2347 -12.4277 -12.4253
   -12.3647 -12.3612 -11.5560 -11.3396 -10.7360 -10.7324 -10.1300 -10.1286
    -9.9135  -9.7562  -9.3035  -9.1107  -8.8573  -8.6864  -8.6701  -8.5974
    -8.5923  -8.4245  -8.4205  -8.3464  -8.1581  -7.7819  -7.6130  -7.4239
    -7.0830  -6.9489  -6.8576  -6.7650  -6.6973  -6.6604  -5.9815  -5.8148
    -5.4274  -5.3641  -5.2775  -4.4788  -4.4257  -3.3978  -3.3591  -1.3931
    -1.3924  -0.0873   0.0982   0.3523   0.4446   0.5878   0.6052   0.8282
     1.2991   1.7903   1.8605   2.2054

          k = 0.0000-0.1443 0.0000 ( 31940 PWs)   bands (ev):

   -21.5593 -21.5446 -19.6651 -19.6349 -19.6335 -19.6177 -19.4907 -18.6877
   -18.6859 -16.9361 -16.9223 -16.9097 -16.9057 -16.7970 -16.7876 -14.1609
   -14.1607 -14.1506 -14.1439 -13.2544 -13.2352 -13.1588 -13.1488 -11.5556
   -11.5512 -11.5455 -11.5409 -11.3346 -11.3322 -11.3291 -11.3243 -11.3159
    -9.7654  -9.6184  -9.5994  -9.3027  -8.7199  -8.6705  -8.5991  -8.5755
    -8.2914  -8.2855  -8.2795  -8.2761  -7.6229  -7.3328  -7.3188  -7.3171
    -6.9796  -6.9573  -6.8925  -6.7372  -6.7110  -6.3528  -6.3193  -6.2988
    -6.2365  -4.7318  -4.6124  -4.4043  -4.3849  -4.2951  -4.1431  -0.5085
    -0.4737  -0.4404  -0.4282   0.3492   0.4421   0.5665   0.8710   1.1990
     1.2489   1.4208   1.4896   2.0598

          k = 0.0833 0.0000 0.0000 ( 31951 PWs)   bands (ev):

   -21.7962 -20.8242 -20.3450 -20.3416 -19.5517 -19.3904 -19.3713 -18.9199
   -17.5651 -17.5640 -16.8313 -16.8165 -16.6162 -16.2783 -15.7920 -15.5404
   -14.8891 -14.6300 -14.6278 -14.1370 -13.2443 -13.2428 -12.4125 -12.1694
   -11.7161 -11.4960 -11.4957 -11.3138 -10.1854  -9.9485  -9.9468  -9.8787
    -9.7132  -9.4572  -9.3074  -9.1626  -9.1626  -8.9864  -8.9861  -8.8726
    -8.7566  -8.7325  -8.6003  -8.2308  -8.1069  -8.0498  -8.0484  -7.6674
    -7.2854  -7.0824  -6.8938  -6.7393  -6.7328  -6.4519  -6.0970  -5.8771
    -5.2551  -5.2538  -4.8072  -4.5163  -4.3105  -3.6555  -3.3661  -1.4179
    -1.1052  -0.7415  -0.0219  -0.0130   0.1667   0.4803   0.5295   0.8719
     1.5541   1.7381   2.1472   2.2097

          k = 0.0833 0.0722 0.0000 ( 31951 PWs)   bands (ev):

   -21.7045 -20.9751 -20.7336 -20.0156 -19.5743 -19.4969 -18.8327 -18.6017
   -18.1439 -17.4837 -16.8896 -16.8168 -16.8118 -16.6070 -16.2426 -15.1458
   -14.6568 -14.5597 -14.0429 -13.9210 -13.2438 -13.2404 -12.2269 -12.2146
   -11.9943 -11.7824 -11.5200 -11.3067 -10.7321 -10.3476  -9.7778  -9.7330
    -9.7219  -9.6891  -9.3660  -9.3051  -9.1590  -8.9890  -8.8217  -8.7749
    -8.6757  -8.6438  -8.5133  -8.4805  -8.1627  -7.8169  -7.5263  -7.3445
    -7.3400  -6.9786  -6.7864  -6.7476  -6.4346  -6.3883  -6.1449  -6.0507
    -5.7588  -5.2083  -4.7033  -4.5188  -4.4573  -3.9601  -3.7778  -1.0713
    -0.7374  -0.5536  -0.1040   0.2836   0.4995   0.5192   0.6818   1.0014
     1.4402   1.6123   1.6806   1.9283

          k = 0.0833-0.1443 0.0000 ( 31876 PWs)   bands (ev):

   -21.4375 -21.4228 -20.4695 -20.4563 -19.5367 -18.5820 -18.5732 -18.5708
   -18.5621 -17.6677 -17.6648 -16.8169 -16.8154 -16.3193 -16.3084 -15.2568
   -15.2561 -13.2509 -13.2418 -13.0939 -13.0879 -13.0812 -13.0790 -13.0150
   -13.0070 -11.4012 -11.3864 -11.2989 -10.7097 -10.7025  -9.9283  -9.9225
    -9.7280  -9.4898  -9.4573  -9.3074  -9.0995  -9.0914  -9.0818  -9.0790
    -8.7715  -8.7159  -8.3052  -8.2635  -7.5966  -7.5856  -7.2762  -7.2616
    -7.1110  -6.7822  -6.7584  -6.6141  -6.6041  -6.2241  -6.1549  -6.1549
    -6.1082  -5.2123  -5.1291  -4.5031  -4.3921  -4.1306  -4.1268  -0.9127
    -0.9067   0.3829   0.4090   0.5032   0.5039   0.5445   1.0543   1.3337
     1.3670   1.3811   1.3861   1.3877

          k =-0.1667 0.0000 0.0000 ( 31854 PWs)   bands (ev):

   -21.4329 -21.4275 -19.9949 -19.9888 -19.9841 -19.9774 -19.5206 -17.6683
   -17.6640 -16.8260 -16.8242 -16.7342 -16.7319 -16.3218 -16.3008 -15.6438
   -15.6400 -15.2570 -15.2518 -13.2616 -13.2323 -13.0143 -13.0060 -11.3935
   -11.3915 -11.2773 -10.7143 -10.7023 -10.2742 -10.2731 -10.2689 -10.2674
    -9.6779  -9.4828  -9.4693  -9.3121  -8.9467  -8.9454  -8.9150  -8.9121
    -8.9117  -8.9048  -8.7401  -8.7088  -7.9466  -7.7325  -7.7180  -7.7119
    -7.2817  -7.2649  -6.9230  -6.8135  -6.7447  -6.6069  -6.6031  -5.2386
    -5.0984  -4.7469  -4.7327  -4.7129  -4.4713  -4.1529  -3.9379  -0.9253
    -0.9055  -0.6581  -0.6371   0.2053   0.4469   0.4959   0.5813   0.7191
     0.8884   1.3708   1.4145   2.2011

          k =-0.1667 0.0722 0.0000 ( 31908 PWs)   bands (ev):

   -21.3417 -21.3363 -20.6153 -20.6112 -19.5397 -19.1884 -19.1731 -17.5863
   -17.5820 -17.1574 -17.1573 -16.9936 -16.9851 -16.8139 -16.8054 -15.2427
   -15.2410 -14.3113 -14.3042 -13.5700 -13.5655 -13.2489 -13.2286 -11.5183
   -11.5145 -11.2717 -10.8232 -10.8228 -10.6111 -10.5990  -9.7504  -9.7337
    -9.6805  -9.3860  -9.3647  -9.3139  -9.2582  -9.2506  -9.2149  -9.2147
    -8.7795  -8.7686  -8.4583  -8.4154  -7.9053  -7.9022  -7.6427  -7.6295
    -7.1949  -6.9242  -6.7965  -6.7131  -6.6441  -6.6417  -6.6279  -5.1942
    -5.0580  -4.9383  -4.8391  -4.7943  -4.7117  -4.4270  -4.2524  -0.5050
    -0.4990  -0.2761  -0.2542   0.1222   0.2649   0.5478   0.6186   0.6726
     0.9970   1.5010   1.5260   1.6872

          k =-0.1667-0.1443 0.0000 ( 31784 PWs)   bands (ev):

   -21.0769 -21.0692 -21.0598 -21.0575 -19.5349 -18.2362 -18.2311 -18.2255
   -18.2250 -17.3576 -17.3484 -17.3470 -17.3272 -16.8157 -16.8139 -14.4615
   -14.4532 -14.4512 -14.4428 -13.2540 -13.2281 -12.9215 -12.9182 -12.9145
   -12.9104 -11.2648 -10.3056 -10.2940 -10.2865 -10.2738  -9.9388  -9.9312
    -9.9150  -9.9065  -9.6955  -9.3113  -9.1344  -9.1165  -9.0739  -8.9921
    -8.6476  -8.6302  -8.3833  -8.3809  -8.3739  -8.3706  -7.0923  -7.0604
    -7.0570  -7.0514  -7.0464  -6.8491  -6.7340  -5.8999  -5.7761  -5.7310
    -5.6962  -5.1094  -4.9587  -4.9473  -4.9083  -4.4071  -4.3870  -0.2321
    -0.1580  -0.1009  -0.0971   0.5295   0.5383   0.7816   1.0377   1.0782
     1.0789   1.1137   1.1804   1.3710

     the Fermi energy is    -2.3728 ev

!    total energy              =    -351.25769537 Ry
     Harris-Foulkes estimate   =    -351.25769554 Ry
     estimated scf accuracy    <       0.00000027 Ry

     The total energy is the sum of the following terms:

     one-electron contribution =   -4813.17619071 Ry
     hartree contribution      =    2426.55275800 Ry
     xc contribution           =    -112.31696607 Ry
     ewald contribution        =    2147.68550761 Ry
     smearing contrib. (-TS)   =      -0.00280420 Ry

     convergence has been achieved in   5 iterations

     Forces acting on atoms (cartesian axes, Ry/au):

     atom    1 type  1   force =     0.00017507   -0.00027249    0.00076321
     atom    2 type  1   force =     0.00000000    0.00093683    0.00186121
     atom    3 type  1   force =     0.00000000    0.00104627   -0.00019996
     atom    4 type  1   force =    -0.00020223    0.00098603   -0.00409176
     atom    5 type  1   force =    -0.00020223   -0.00098603   -0.00409176
     atom    6 type  1   force =     0.00000000   -0.00104627   -0.00019996
     atom    7 type  1   force =     0.00000000   -0.00093683    0.00186121
     atom    8 type  1   force =     0.00017507    0.00027249    0.00076321
     atom    9 type  1   force =     0.00000000    0.00052856    0.00103398
     atom   10 type  1   force =     0.00026970    0.00046363   -0.00157692
     atom   11 type  1   force =     0.00058064    0.00028387   -0.00701253
     atom   12 type  1   force =     0.00000000    0.00002694   -0.00998634
     atom   13 type  1   force =     0.00000000   -0.00002694   -0.00998634
     atom   14 type  1   force =     0.00058064   -0.00028387   -0.00701253
     atom   15 type  1   force =     0.00026970   -0.00046363   -0.00157692
     atom   16 type  1   force =     0.00000000   -0.00052856    0.00103398
     atom   17 type  1   force =    -0.00017507   -0.00027249    0.00076321
     atom   18 type  1   force =    -0.00026970    0.00046363   -0.00157692
     atom   19 type  1   force =    -0.00058064    0.00028387   -0.00701253
     atom   20 type  1   force =     0.00020223    0.00098603   -0.00409176
     atom   21 type  1   force =     0.00020223   -0.00098603   -0.00409176
     atom   22 type  1   force =    -0.00058064   -0.00028387   -0.00701253
     atom   23 type  1   force =    -0.00026970   -0.00046363   -0.00157692
     atom   24 type  1   force =    -0.00017507    0.00027249    0.00076321
     atom   25 type  1   force =     0.00000000    0.00492901    0.01095973
     atom   26 type  1   force =     0.00464995    0.00329277    0.00944549
     atom   27 type  1   force =     0.00464995   -0.00329277    0.00944549
     atom   28 type  1   force =     0.00000000   -0.00492901    0.01095973
     atom   29 type  1   force =    -0.00464995   -0.00329277    0.00944549
     atom   30 type  1   force =    -0.00464995    0.00329277    0.00944549
     atom   31 type  2   force =     0.00000000   -0.00069204    0.00025294
     atom   32 type  2   force =    -0.00036356   -0.00048405    0.00051173
     atom   33 type  2   force =    -0.00036356    0.00048405    0.00051173
     atom   34 type  2   force =     0.00000000    0.00069204    0.00025294
     atom   35 type  2   force =     0.00036356    0.00048405    0.00051173
     atom   36 type  2   force =     0.00036356   -0.00048405    0.00051173

     Total force =     0.035714     Total SCF correction =     0.001365

     number of scf cycles    =   2
     number of bfgs steps    =   1

     energy   old            =    -351.2564210983 Ry
     energy   new            =    -351.2576953730 Ry

     CASE: energy  _new < energy  _old

     new trust radius        =       0.0144205247 bohr
     new conv_thr            =       0.0000010000 Ry


ATOMIC_POSITIONS (angstrom)
C        1.230474865   0.000770906   0.000878506
C        0.000000000   0.710495256   0.001569758
C        0.000000000   2.131716754   0.000098334
C        1.230863115   2.840305024  -0.004821070
C        1.230863115   4.261103287  -0.004821070
C        0.000000000   4.969691557   0.000098334
C        0.000000000   6.390913055   0.001569758
C        1.230474865   7.100637405   0.000878506
C        3.690000000   0.000144248   0.000934580
C        2.459855244   0.711278679  -0.001577029
C        2.459945787   2.131636096  -0.009016636
C        3.690000000   2.841724782  -0.011661520
C        3.690000000   4.259683529  -0.011661520
C        2.459945787   4.969772215  -0.009016636
C        2.459855244   6.390129632  -0.001577029
C        3.690000000   7.101264063   0.000934580
C        6.149525135   0.000770906   0.000878506
C        4.920144756   0.711278679  -0.001577029
C        4.920054213   2.131636096  -0.009016636
C        6.149136885   2.840305024  -0.004821070
C        6.149136885   4.261103287  -0.004821070
C        4.920054213   4.969772215  -0.009016636
C        4.920144756   6.390129632  -0.001577029
C        6.149525135   7.100637405   0.000878506
C        3.690000000   2.153910516   3.014264018
C        2.481149450   2.852081806   3.011518918
C        2.481149450   4.249326505   3.011518918
C        3.690000000   4.947497795   3.014264018
C        4.898850550   4.249326505   3.011518918
C        4.898850550   2.852081806   3.011518918
H        3.690000000   1.069526335   2.999907745
H        1.541619971   2.310063639   3.000460853
H        1.541619971   4.791344672   3.000460853
H        3.690000000   6.031881976   2.999907745
H        5.838380029   4.791344672   3.000460853
H        5.838380029   2.310063639   3.000460853



     Writing output data file batch_graph+benzene.save/
     NEW-OLD atomic charge density approx. for the potential

     negative rho (up, down):  2.123E-04 0.000E+00

     total cpu time spent up to now is      458.3 secs

     Self-consistent Calculation

     iteration #  1     ecut=    32.00 Ry     beta= 0.50
     Davidson diagonalization with overlap
     ethr =  1.00E-06,  avg # of iterations =  3.0

     negative rho (up, down):  2.125E-04 0.000E+00

     total cpu time spent up to now is      497.4 secs

     total energy              =    -351.25893129 Ry
     Harris-Foulkes estimate   =    -351.25907444 Ry
     estimated scf accuracy    <       0.00032279 Ry

     iteration #  2     ecut=    32.00 Ry     beta= 0.50
     Davidson diagonalization with overlap
     ethr =  2.56E-07,  avg # of iterations =  2.0

     negative rho (up, down):  2.128E-04 0.000E+00

     total cpu time spent up to now is      525.2 secs

     total energy              =    -351.25898806 Ry
     Harris-Foulkes estimate   =    -351.25899643 Ry
     estimated scf accuracy    <       0.00003717 Ry

     iteration #  3     ecut=    32.00 Ry     beta= 0.50
     Davidson diagonalization with overlap
     ethr =  2.95E-08,  avg # of iterations =  2.0

     negative rho (up, down):  2.132E-04 0.000E+00

     total cpu time spent up to now is      552.1 secs

     total energy              =    -351.25899388 Ry
     Harris-Foulkes estimate   =    -351.25899428 Ry
     estimated scf accuracy    <       0.00000761 Ry

     iteration #  4     ecut=    32.00 Ry     beta= 0.50
     Davidson diagonalization with overlap
     ethr =  6.04E-09,  avg # of iterations =  2.0

     negative rho (up, down):  2.136E-04 0.000E+00

     total cpu time spent up to now is      578.8 secs

     total energy              =    -351.25899500 Ry
     Harris-Foulkes estimate   =    -351.25899509 Ry
     estimated scf accuracy    <       0.00000141 Ry

     iteration #  5     ecut=    32.00 Ry     beta= 0.50
     Davidson diagonalization with overlap
     ethr =  1.12E-09,  avg # of iterations =  2.2

     negative rho (up, down):  2.127E-04 0.000E+00

     total cpu time spent up to now is      604.9 secs

     End of self-consistent calculation

          k = 0.0000 0.0000 0.0000 ( 31971 PWs)   bands (ev):

   -21.9218 -20.4680 -20.4645 -19.9918 -19.9872 -19.5349 -18.5783 -18.5765
   -18.5765 -18.5700 -16.8474 -16.8108 -16.7131 -15.6443 -15.0734 -15.0694
   -15.0651 -15.0622 -13.2696 -13.2404 -13.0933 -13.0916 -13.0895 -13.0888
   -12.9538 -12.9446 -11.3557 -10.2823 -10.2762 -10.0152  -9.9264  -9.9246
    -9.7538  -9.3057  -9.0947  -9.0941  -9.0888  -9.0857  -8.9518  -8.9118
    -8.9059  -8.7718  -8.6747  -8.3922  -8.2291  -7.8261  -7.7113  -7.5991
    -7.5985  -7.0389  -6.7868  -6.7258  -6.2103  -6.2026  -6.1400  -6.0776
    -5.6290  -5.6191  -4.9061  -4.4841  -4.3505  -2.4063  -2.3849  -2.3628
    -2.3512  -0.7104  -0.0412   0.4226   0.5656   0.6959   1.3502   1.3552
     1.3603   1.3803   1.5758   1.9837

          k = 0.0000 0.0722 0.0000 ( 31929 PWs)   bands (ev):

   -21.8300 -21.0994 -19.9041 -19.8977 -19.6694 -19.5287 -19.1877 -19.1783
   -17.8114 -17.8091 -17.5971 -16.8204 -16.8108 -15.9409 -15.9379 -14.6537
   -14.5400 -14.5376 -13.6947 -13.6899 -13.2550 -13.2389 -12.4316 -12.4283
   -12.3692 -12.3646 -11.5591 -11.3464 -10.7409 -10.7357 -10.1329 -10.1326
    -9.9151  -9.7625  -9.3041  -9.1126  -8.8613  -8.6904  -8.6730  -8.6008
    -8.5952  -8.4277  -8.4240  -8.3496  -8.1625  -7.7804  -7.6159  -7.4256
    -7.0869  -6.9534  -6.8606  -6.7671  -6.6981  -6.6711  -5.9841  -5.8197
    -5.4258  -5.3665  -5.2815  -4.4828  -4.4336  -3.4010  -3.3638  -1.3961
    -1.3959  -0.0875   0.1013   0.3518   0.4422   0.5856   0.6007   0.8260
     1.3015   1.7910   1.8590   2.2048

          k = 0.0000-0.1443 0.0000 ( 31940 PWs)   bands (ev):

   -21.5594 -21.5511 -19.6680 -19.6346 -19.6339 -19.6255 -19.4967 -18.6918
   -18.6888 -16.9368 -16.9262 -16.9130 -16.9100 -16.8000 -16.7929 -14.1613
   -14.1610 -14.1580 -14.1504 -13.2583 -13.2394 -13.1598 -13.1546 -11.5593
   -11.5541 -11.5509 -11.5444 -11.3405 -11.3326 -11.3309 -11.3308 -11.3223
    -9.7716  -9.6208  -9.6002  -9.3034  -8.7243  -8.6732  -8.5987  -8.5847
    -8.2936  -8.2884  -8.2844  -8.2795  -7.6218  -7.3369  -7.3187  -7.3182
    -6.9823  -6.9596  -6.9022  -6.7423  -6.7118  -6.3533  -6.3215  -6.3061
    -6.2424  -4.7303  -4.6132  -4.4072  -4.3887  -4.3012  -4.1537  -0.5121
    -0.4746  -0.4430  -0.4331   0.3509   0.4430   0.5649   0.8736   1.1971
     1.2492   1.4182   1.4852   2.0607

          k = 0.0833 0.0000 0.0000 ( 31951 PWs)   bands (ev):

   -21.7994 -20.8275 -20.3485 -20.3446 -19.5539 -19.3935 -19.3762 -18.9234
   -17.5681 -17.5679 -16.8345 -16.8186 -16.6209 -16.2818 -15.7960 -15.5432
   -14.8920 -14.6334 -14.6320 -14.1410 -13.2486 -13.2471 -12.4156 -12.1733
   -11.7204 -11.4999 -11.4993 -11.3208 -10.1883  -9.9511  -9.9505  -9.8802
    -9.7198  -9.4612  -9.3081  -9.1664  -9.1658  -8.9899  -8.9896  -8.8747
    -8.7614  -8.7377  -8.6013  -8.2309  -8.1088  -8.0538  -8.0532  -7.6702
    -7.2875  -7.0845  -6.9010  -6.7398  -6.7380  -6.4568  -6.1019  -5.8796
    -5.2567  -5.2561  -4.8055  -4.5198  -4.3201  -3.6592  -3.3719  -1.4206
    -1.1081  -0.7431  -0.0259  -0.0165   0.1692   0.4808   0.5280   0.8698
     1.5561   1.7390   2.1450   2.2089

          k = 0.0833 0.0722 0.0000 ( 31951 PWs)   bands (ev):

   -21.7078 -20.9784 -20.7369 -20.0188 -19.5764 -19.5015 -18.8361 -18.6052
   -18.1475 -17.4871 -16.8923 -16.8204 -16.8147 -16.6111 -16.2461 -15.1497
   -14.6607 -14.5628 -14.0461 -13.9248 -13.2480 -13.2447 -12.2310 -12.2180
   -11.9985 -11.7857 -11.5231 -11.3137 -10.7360 -10.3513  -9.7795  -9.7357
    -9.7283  -9.6931  -9.3698  -9.3060  -9.1633  -8.9911  -8.8237  -8.7783
    -8.6792  -8.6481  -8.5155  -8.4835  -8.1662  -7.8174  -7.5295  -7.3485
    -7.3416  -6.9886  -6.7879  -6.7497  -6.4386  -6.3916  -6.1475  -6.0542
    -5.7618  -5.2085  -4.7050  -4.5224  -4.4632  -3.9676  -3.7814  -1.0744
    -0.7403  -0.5577  -0.1051   0.2860   0.4994   0.5194   0.6765   0.9992
     1.4423   1.6141   1.6782   1.9248

          k = 0.0833-0.1443 0.0000 ( 31876 PWs)   bands (ev):

   -21.4376 -21.4294 -20.4696 -20.4629 -19.5398 -18.5820 -18.5772 -18.5736
   -18.5691 -17.6716 -17.6677 -16.8197 -16.8190 -16.3205 -16.3140 -15.2616
   -15.2592 -13.2547 -13.2458 -13.0978 -13.0891 -13.0865 -13.0833 -13.0158
   -13.0131 -11.4016 -11.3938 -11.3060 -10.7111 -10.7079  -9.9314  -9.9271
    -9.7347  -9.4921  -9.4580  -9.3080  -9.0993  -9.0932  -9.0882  -9.0861
    -8.7740  -8.7203  -8.3072  -8.2641  -7.5997  -7.5891  -7.2796  -7.2645
    -7.1191  -6.7827  -6.7609  -6.6165  -6.6103  -6.2237  -6.1590  -6.1559
    -6.1142  -5.2121  -5.1324  -4.5069  -4.4007  -4.1337  -4.1314  -0.9150
    -0.9119   0.3831   0.4086   0.5024   0.5046   0.5421   1.0562   1.3310
     1.3626   1.3774   1.3848   1.3849

          k =-0.1667 0.0000 0.0000 ( 31854 PWs)   bands (ev):

   -21.4355 -21.4315 -19.9988 -19.9913 -19.9868 -19.9811 -19.5247 -17.6714
   -17.6676 -16.8294 -16.8263 -16.7371 -16.7359 -16.3250 -16.3059 -15.6474
   -15.6443 -15.2581 -15.2565 -13.2653 -13.2366 -13.0185 -13.0107 -11.3966
   -11.3943 -11.2845 -10.7188 -10.7057 -10.2793 -10.2763 -10.2725 -10.2688
    -9.6848  -9.4834  -9.4717  -9.3128  -8.9494  -8.9489  -8.9205  -8.9170
    -8.9157  -8.9071  -8.7422  -8.7142  -7.9438  -7.7352  -7.7192  -7.7144
    -7.2878  -7.2681  -6.9371  -6.8137  -6.7479  -6.6077  -6.6076  -5.2378
    -5.1016  -4.7494  -4.7366  -4.7100  -4.4762  -4.1569  -3.9493  -0.9285
    -0.9069  -0.6620  -0.6430   0.2099   0.4433   0.4973   0.5831   0.7093
     0.8911   1.3686   1.4129   2.2026

          k =-0.1667 0.0722 0.0000 ( 31908 PWs)   bands (ev):

   -21.3442 -21.3403 -20.6179 -20.6152 -19.5425 -19.1910 -19.1778 -17.5894
   -17.5855 -17.1612 -17.1599 -16.9963 -16.9891 -16.8166 -16.8102 -15.2464
   -15.2450 -14.3128 -14.3089 -13.5735 -13.5694 -13.2535 -13.2330 -11.5198
   -11.5192 -11.2789 -10.8262 -10.8262 -10.6157 -10.6024  -9.7552  -9.7372
    -9.6874  -9.3866  -9.3674  -9.3143  -9.2633  -9.2529  -9.2186  -9.2176
    -8.7837  -8.7702  -8.4589  -8.4181  -7.9104  -7.9045  -7.6484  -7.6324
    -7.1985  -6.9256  -6.8023  -6.7145  -6.6502  -6.6431  -6.6328  -5.1932
    -5.0604  -4.9360  -4.8410  -4.7983  -4.7152  -4.4329  -4.2647  -0.5087
    -0.5036  -0.2790  -0.2559   0.1242   0.2617   0.5485   0.6123   0.6722
     0.9997   1.4983   1.5241   1.6905

          k =-0.1667-0.1443 0.0000 ( 31784 PWs)   bands (ev):

   -21.0764 -21.0698 -21.0655 -21.0649 -19.5380 -18.2390 -18.2334 -18.2307
   -18.2284 -17.3565 -17.3521 -17.3493 -17.3358 -16.8182 -16.8182 -14.4640
   -14.4562 -14.4559 -14.4479 -13.2582 -13.2323 -12.9217 -12.9212 -12.9178
   -12.9168 -11.2721 -10.3059 -10.2955 -10.2932 -10.2815  -9.9397  -9.9349
    -9.9174  -9.9129  -9.7023  -9.3120  -9.1344  -9.1204  -9.0758  -8.9922
    -8.6503  -8.6339  -8.3875  -8.3871  -8.3759  -8.3738  -7.1009  -7.0659
    -7.0597  -7.0522  -7.0519  -6.8493  -6.7368  -5.8971  -5.7782  -5.7343
    -5.7021  -5.1083  -4.9583  -4.9494  -4.9158  -4.4135  -4.3968  -0.2304
    -0.1614  -0.1046  -0.1035   0.5314   0.5328   0.7827   1.0359   1.0753
     1.0764   1.1094   1.1824   1.3740

     the Fermi energy is    -2.3763 ev

!    total energy              =    -351.25899509 Ry
     Harris-Foulkes estimate   =    -351.25899534 Ry
     estimated scf accuracy    <       0.00000030 Ry

     The total energy is the sum of the following terms:

     one-electron contribution =   -4809.85602143 Ry
     hartree contribution      =    2424.88083484 Ry
     xc contribution           =    -112.32173402 Ry
     ewald contribution        =    2146.04072959 Ry
     smearing contrib. (-TS)   =      -0.00280406 Ry

     convergence has been achieved in   5 iterations

     Forces acting on atoms (cartesian axes, Ry/au):

     atom    1 type  1   force =    -0.00021083   -0.00062157    0.00079720
     atom    2 type  1   force =     0.00000000    0.00138068    0.00201546
     atom    3 type  1   force =     0.00000000    0.00044310   -0.00079439
     atom    4 type  1   force =    -0.00073123    0.00129923   -0.00408199
     atom    5 type  1   force =    -0.00073123   -0.00129923   -0.00408199
     atom    6 type  1   force =     0.00000000   -0.00044310   -0.00079439
     atom    7 type  1   force =     0.00000000   -0.00138068    0.00201546
     atom    8 type  1   force =    -0.00021083    0.00062157    0.00079720
     atom    9 type  1   force =     0.00000000    0.00084457    0.00120420
     atom   10 type  1   force =     0.00055248   -0.00009523   -0.00183079
     atom   11 type  1   force =     0.00069688   -0.00036107   -0.00616199
     atom   12 type  1   force =     0.00000000   -0.00110714   -0.00903913
     atom   13 type  1   force =     0.00000000    0.00110714   -0.00903913
     atom   14 type  1   force =     0.00069688    0.00036107   -0.00616199
     atom   15 type  1   force =     0.00055248    0.00009523   -0.00183079
     atom   16 type  1   force =     0.00000000   -0.00084457    0.00120420
     atom   17 type  1   force =     0.00021083   -0.00062157    0.00079720
     atom   18 type  1   force =    -0.00055248   -0.00009523   -0.00183079
     atom   19 type  1   force =    -0.00069688   -0.00036107   -0.00616199
     atom   20 type  1   force =     0.00073123    0.00129923   -0.00408199
     atom   21 type  1   force =     0.00073123   -0.00129923   -0.00408199
     atom   22 type  1   force =    -0.00069688    0.00036107   -0.00616199
     atom   23 type  1   force =    -0.00055248    0.00009523   -0.00183079
     atom   24 type  1   force =     0.00021083    0.00062157    0.00079720
     atom   25 type  1   force =     0.00000000    0.00626495    0.00929137
     atom   26 type  1   force =     0.00534746    0.00385903    0.00887702
     atom   27 type  1   force =     0.00534746   -0.00385903    0.00887702
     atom   28 type  1   force =     0.00000000   -0.00626495    0.00929137
     atom   29 type  1   force =    -0.00534746   -0.00385903    0.00887702
     atom   30 type  1   force =    -0.00534746    0.00385903    0.00887702
     atom   31 type  2   force =     0.00000000   -0.00259206    0.00071246
     atom   32 type  2   force =    -0.00176621   -0.00124336    0.00070555
     atom   33 type  2   force =    -0.00176621    0.00124336    0.00070555
     atom   34 type  2   force =     0.00000000    0.00259206    0.00071246
     atom   35 type  2   force =     0.00176621    0.00124336    0.00070555
     atom   36 type  2   force =     0.00176621   -0.00124336    0.00070555

     Total force =     0.034757     Total SCF correction =     0.001446

     number of scf cycles    =   3
     number of bfgs steps    =   2

     energy   old            =    -351.2576953730 Ry
     energy   new            =    -351.2589950852 Ry

     CASE: energy  _new < energy  _old

     new trust radius        =       0.0216307871 bohr
     new conv_thr            =       0.0000009291 Ry


ATOMIC_POSITIONS (angstrom)
C        1.230551302   0.000994353   0.001709928
C        0.000000000   0.711309384   0.003237932
C        0.000000000   2.132405452  -0.000346162
C        1.231025847   2.840580786  -0.009206701
C        1.231025847   4.260827525  -0.009206701
C        0.000000000   4.969002859  -0.000346162
C        0.000000000   6.390098927   0.003237932
C        1.230551302   7.100413958   0.001709928
C        3.690000000   0.000615225   0.001973933
C        2.460033485   0.711762173  -0.003267808
C        2.460125108   2.132067115  -0.016418148
C        3.690000000   2.841673252  -0.021555073
C        3.690000000   4.259735059  -0.021555073
C        2.460125108   4.969341196  -0.016418148
C        2.460033485   6.389646138  -0.003267808
C        3.690000000   7.100793086   0.001973933
C        6.149448698   0.000994353   0.001709928
C        4.919966515   0.711762173  -0.003267808
C        4.919874892   2.132067115  -0.016418148
C        6.148974153   2.840580786  -0.009206701
C        6.148974153   4.260827525  -0.009206701
C        4.919874892   4.969341196  -0.016418148
C        4.919966515   6.389646138  -0.003267808
C        6.149448698   7.100413958   0.001709928
C        3.690000000   2.154640208   3.025687255
C        2.481926730   2.852385857   3.021492195
C        2.481926730   4.249022454   3.021492195
C        3.690000000   4.946768103   3.025687255
C        4.898073270   4.249022454   3.021492195
C        4.898073270   2.852385857   3.021492195
H        3.690000000   1.071084657   3.000260966
H        1.543291460   2.310780292   3.001061109
H        1.543291460   4.790628019   3.001061109
H        3.690000000   6.030323654   3.000260966
H        5.836708540   4.790628019   3.001061109
H        5.836708540   2.310780292   3.001061109



     Writing output data file batch_graph+benzene.save/
     NEW-OLD atomic charge density approx. for the potential

     negative rho (up, down):  2.134E-04 0.000E+00

     total cpu time spent up to now is      619.2 secs

     Self-consistent Calculation

     iteration #  1     ecut=    32.00 Ry     beta= 0.50
     Davidson diagonalization with overlap
     ethr =  1.00E-06,  avg # of iterations =  4.0

     negative rho (up, down):  2.133E-04 0.000E+00

     total cpu time spent up to now is      664.3 secs

     total energy              =    -351.26065604 Ry
     Harris-Foulkes estimate   =    -351.26100393 Ry
     estimated scf accuracy    <       0.00077912 Ry

     iteration #  2     ecut=    32.00 Ry     beta= 0.50
     Davidson diagonalization with overlap
     ethr =  6.18E-07,  avg # of iterations =  2.0

     negative rho (up, down):  2.141E-04 0.000E+00

     total cpu time spent up to now is      691.6 secs

     total energy              =    -351.26079058 Ry
     Harris-Foulkes estimate   =    -351.26081518 Ry
     estimated scf accuracy    <       0.00009698 Ry

     iteration #  3     ecut=    32.00 Ry     beta= 0.50
     Davidson diagonalization with overlap
     ethr =  7.70E-08,  avg # of iterations =  2.0

     negative rho (up, down):  2.135E-04 0.000E+00

     total cpu time spent up to now is      718.9 secs

     total energy              =    -351.26080554 Ry
     Harris-Foulkes estimate   =    -351.26080918 Ry
     estimated scf accuracy    <       0.00002285 Ry

     iteration #  4     ecut=    32.00 Ry     beta= 0.50
     Davidson diagonalization with overlap
     ethr =  1.81E-08,  avg # of iterations =  2.0

     negative rho (up, down):  2.148E-04 0.000E+00

     total cpu time spent up to now is      745.2 secs

     total energy              =    -351.26080906 Ry
     Harris-Foulkes estimate   =    -351.26081040 Ry
     estimated scf accuracy    <       0.00000636 Ry

     iteration #  5     ecut=    32.00 Ry     beta= 0.50
     Davidson diagonalization with overlap
     ethr =  5.04E-09,  avg # of iterations =  2.1

     negative rho (up, down):  2.133E-04 0.000E+00

     total cpu time spent up to now is      770.9 secs

     End of self-consistent calculation

          k = 0.0000 0.0000 0.0000 ( 31971 PWs)   bands (ev):

   -21.9267 -20.4720 -20.4701 -19.9964 -19.9922 -19.5444 -18.5833 -18.5828
   -18.5816 -18.5743 -16.8512 -16.8147 -16.7205 -15.6492 -15.0783 -15.0736
   -15.0710 -15.0680 -13.2710 -13.2445 -13.0996 -13.0953 -13.0953 -13.0948
   -12.9589 -12.9505 -11.3624 -10.2873 -10.2825 -10.0181  -9.9319  -9.9286
    -9.7532  -9.3097  -9.0998  -9.0989  -9.0937  -9.0923  -8.9573  -8.9161
    -8.9115  -8.7759  -8.6774  -8.3902  -8.2320  -7.8287  -7.7141  -7.6053
    -7.6038  -7.0553  -6.7857  -6.7268  -6.2119  -6.2054  -6.1439  -6.0866
    -5.6350  -5.6241  -4.9046  -4.4912  -4.3660  -2.4089  -2.3885  -2.3687
    -2.3594  -0.7131  -0.0386   0.4264   0.5650   0.6929   1.3449   1.3498
     1.3551   1.3734   1.5755   1.9860

          k = 0.0000 0.0722 0.0000 ( 31929 PWs)   bands (ev):

   -21.8349 -21.1043 -19.9085 -19.9026 -19.6739 -19.5382 -19.1927 -19.1841
   -17.8164 -17.8141 -17.6020 -16.8265 -16.8147 -15.9462 -15.9432 -14.6588
   -14.5450 -14.5431 -13.6996 -13.6956 -13.2572 -13.2433 -12.4367 -12.4337
   -12.3742 -12.3705 -11.5642 -11.3533 -10.7459 -10.7417 -10.1381 -10.1380
    -9.9173  -9.7616  -9.3082  -9.1150  -8.8668  -8.6926  -8.6756  -8.6055
    -8.6011  -8.4325  -8.4299  -8.3548  -8.1683  -7.7794  -7.6188  -7.4293
    -7.0958  -6.9592  -6.8640  -6.7657  -6.6982  -6.6869  -5.9891  -5.8258
    -5.4242  -5.3693  -5.2872  -4.4899  -4.4465  -3.4053  -3.3711  -1.4013
    -1.4006  -0.0880   0.1039   0.3519   0.4378   0.5837   0.5953   0.8230
     1.3043   1.7902   1.8571   2.2039

          k = 0.0000-0.1443 0.0000 ( 31940 PWs)   bands (ev):

   -21.5630 -21.5574 -19.6722 -19.6380 -19.6374 -19.6320 -19.5081 -18.6983
   -18.6926 -16.9391 -16.9315 -16.9191 -16.9140 -16.8049 -16.8008 -14.1648
   -14.1646 -14.1644 -14.1580 -13.2601 -13.2437 -13.1630 -13.1620 -11.5646
   -11.5602 -11.5554 -11.5500 -11.3469 -11.3377 -11.3360 -11.3347 -11.3300
    -9.7706  -9.6214  -9.6040  -9.3075  -8.7269  -8.6754  -8.6015  -8.5935
    -8.2981  -8.2941  -8.2892  -8.2857  -7.6206  -7.3390  -7.3227  -7.3216
    -6.9888  -6.9625  -6.9188  -6.7446  -6.7120  -6.3527  -6.3268  -6.3128
    -6.2514  -4.7292  -4.6154  -4.4099  -4.3948  -4.3103  -4.1705  -0.5154
    -0.4775  -0.4478  -0.4404   0.3520   0.4467   0.5641   0.8759   1.1937
     1.2500   1.4128   1.4788   2.0600

          k = 0.0833 0.0000 0.0000 ( 31951 PWs)   bands (ev):

   -21.8043 -20.8323 -20.3526 -20.3503 -19.5614 -19.3991 -19.3825 -18.9286
   -17.5738 -17.5723 -16.8391 -16.8225 -16.6274 -16.2871 -15.8015 -15.5481
   -14.8969 -14.6392 -14.6368 -14.1464 -13.2515 -13.2507 -12.4207 -12.1787
   -11.7261 -11.5052 -11.5046 -11.3279 -10.1933  -9.9568  -9.9556  -9.8817
    -9.7191  -9.4667  -9.3123  -9.1716  -9.1713  -8.9955  -8.9947  -8.8770
    -8.7667  -8.7421  -8.6020  -8.2311  -8.1119  -8.0600  -8.0587  -7.6753
    -7.2924  -7.0882  -6.9099  -6.7427  -6.7397  -6.4636  -6.1080  -5.8846
    -5.2599  -5.2590  -4.8040  -4.5257  -4.3341  -3.6650  -3.3798  -1.4253
    -1.1120  -0.7463  -0.0307  -0.0222   0.1708   0.4831   0.5272   0.8668
     1.5580   1.7394   2.1419   2.2079

          k = 0.0833 0.0722 0.0000 ( 31951 PWs)   bands (ev):

   -21.7127 -20.9833 -20.7418 -20.0235 -19.5819 -19.5103 -18.8413 -18.6103
   -18.1526 -17.4920 -16.8966 -16.8261 -16.8191 -16.6170 -16.2513 -15.1551
   -14.6660 -14.5679 -14.0511 -13.9301 -13.2524 -13.2468 -12.2365 -12.2232
   -12.0040 -11.7908 -11.5282 -11.3208 -10.7414 -10.3566  -9.7818  -9.7407
    -9.7278  -9.6980  -9.3751  -9.3104  -9.1690  -8.9938  -8.8254  -8.7835
    -8.6813  -8.6538  -8.5181  -8.4888  -8.1715  -7.8190  -7.5346  -7.3541
    -7.3447  -7.0042  -6.7876  -6.7501  -6.4444  -6.3963  -6.1513  -6.0596
    -5.7659  -5.2089  -4.7081  -4.5279  -4.4729  -3.9784  -3.7871  -1.0788
    -0.7451  -0.5634  -0.1072   0.2879   0.5003   0.5213   0.6691   0.9961
     1.4447   1.6154   1.6745   1.9196

          k = 0.0833-0.1443 0.0000 ( 31876 PWs)   bands (ev):

   -21.4411 -21.4356 -20.4731 -20.4691 -19.5488 -18.5854 -18.5837 -18.5774
   -18.5760 -17.6778 -17.6715 -16.8259 -16.8228 -16.3242 -16.3206 -15.2684
   -15.2633 -13.2584 -13.2476 -13.1035 -13.0939 -13.0924 -13.0885 -13.0203
   -13.0192 -11.4049 -11.4013 -11.3131 -10.7149 -10.7145  -9.9371  -9.9323
    -9.7341  -9.4925  -9.4619  -9.3120  -9.1024  -9.0976  -9.0964  -9.0921
    -8.7760  -8.7232  -8.3078  -8.2674  -7.6054  -7.5941  -7.2859  -7.2687
    -7.1339  -6.7828  -6.7599  -6.6216  -6.6170  -6.2224  -6.1635  -6.1599
    -6.1226  -5.2110  -5.1379  -4.5134  -4.4145  -4.1398  -4.1371  -0.9195
    -0.9179   0.3820   0.4083   0.5029   0.5054   0.5393   1.0577   1.3263
     1.3547   1.3726   1.3803   1.3827

          k =-0.1667 0.0000 0.0000 ( 31854 PWs)   bands (ev):

   -21.4399 -21.4369 -20.0022 -19.9959 -19.9911 -19.9878 -19.5349 -17.6766
   -17.6724 -16.8345 -16.8300 -16.7430 -16.7404 -16.3290 -16.3134 -15.6532
   -15.6495 -15.2636 -15.2607 -13.2688 -13.2388 -13.0239 -13.0170 -11.4011
   -11.3997 -11.2918 -10.7241 -10.7114 -10.2826 -10.2823 -10.2783 -10.2748
    -9.6841  -9.4835  -9.4756  -9.3170  -8.9548  -8.9535  -8.9260  -8.9223
    -8.9204  -8.9141  -8.7441  -8.7181  -7.9403  -7.7398  -7.7216  -7.7179
    -7.2922  -7.2753  -6.9586  -6.8135  -6.7483  -6.6140  -6.6114  -5.2373
    -5.1061  -4.7543  -4.7412  -4.7078  -4.4847  -4.1603  -3.9668  -0.9304
    -0.9134  -0.6684  -0.6501   0.2177   0.4376   0.5010   0.5844   0.6964
     0.8929   1.3657   1.4106   2.2034

          k =-0.1667 0.0722 0.0000 ( 31908 PWs)   bands (ev):

   -21.3486 -21.3457 -20.6224 -20.6205 -19.5512 -19.1954 -19.1841 -17.5946
   -17.5903 -17.1663 -17.1642 -17.0013 -16.9938 -16.8211 -16.8171 -15.2520
   -15.2503 -14.3180 -14.3138 -13.5785 -13.5748 -13.2582 -13.2353 -11.5253
   -11.5239 -11.2863 -10.8317 -10.8310 -10.6209 -10.6081  -9.7597  -9.7429
    -9.6877  -9.3865  -9.3717  -9.3183  -9.2677  -9.2590  -9.2236  -9.2234
    -8.7868  -8.7720  -8.4591  -8.4219  -7.9154  -7.9105  -7.6529  -7.6393
    -7.2071  -6.9275  -6.8076  -6.7163  -6.6562  -6.6494  -6.6376  -5.1924
    -5.0645  -4.9332  -4.8449  -4.8029  -4.7192  -4.4428  -4.2835  -0.5149
    -0.5091  -0.2810  -0.2619   0.1283   0.2565   0.5513   0.6032   0.6717
     1.0016   1.4949   1.5215   1.6945

          k =-0.1667-0.1443 0.0000 ( 31784 PWs)   bands (ev):

   -21.0789 -21.0743 -21.0718 -21.0711 -19.5471 -18.2445 -18.2379 -18.2368
   -18.2327 -17.3589 -17.3581 -17.3536 -17.3430 -16.8244 -16.8226 -14.4698
   -14.4627 -14.4599 -14.4529 -13.2625 -13.2344 -12.9291 -12.9246 -12.9245
   -12.9201 -11.2794 -10.3082 -10.3037 -10.2970 -10.2892  -9.9440  -9.9423
    -9.9214  -9.9182  -9.7017  -9.3162  -9.1309  -9.1246  -9.0804  -8.9953
    -8.6524  -8.6363  -8.3920  -8.3914  -8.3824  -8.3806  -7.1164  -7.0711
    -7.0668  -7.0577  -7.0567  -6.8491  -6.7360  -5.8924  -5.7821  -5.7373
    -5.7112  -5.1070  -4.9616  -4.9541  -4.9215  -4.4244  -4.4122  -0.2270
    -0.1694  -0.1114  -0.1076   0.5262   0.5362   0.7833   1.0316   1.0694
     1.0695   1.1056   1.1849   1.3773

     the Fermi energy is    -2.3814 ev

!    total energy              =    -351.26081006 Ry
     Harris-Foulkes estimate   =    -351.26081051 Ry
     estimated scf accuracy    <       0.00000085 Ry

     The total energy is the sum of the following terms:

     one-electron contribution =   -4804.61189157 Ry
     hartree contribution      =    2422.23752224 Ry
     xc contribution           =    -112.32575301 Ry
     ewald contribution        =    2143.44211946 Ry
     smearing contrib. (-TS)   =      -0.00280717 Ry

     convergence has been achieved in   5 iterations

     Forces acting on atoms (cartesian axes, Ry/au):

     atom    1 type  1   force =    -0.00042294   -0.00074441    0.00098374
     atom    2 type  1   force =     0.00000000    0.00024064    0.00107818
     atom    3 type  1   force =     0.00000000   -0.00024815   -0.00158906
     atom    4 type  1   force =    -0.00087401    0.00101210   -0.00388855
     atom    5 type  1   force =    -0.00087401   -0.00101210   -0.00388855
     atom    6 type  1   force =     0.00000000    0.00024815   -0.00158906
     atom    7 type  1   force =     0.00000000   -0.00024064    0.00107818
     atom    8 type  1   force =    -0.00042294    0.00074441    0.00098374
     atom    9 type  1   force =     0.00000000    0.00018702    0.00068210
     atom   10 type  1   force =     0.00028759   -0.00061315   -0.00180915
     atom   11 type  1   force =     0.00049654   -0.00094804   -0.00488962
     atom   12 type  1   force =     0.00000000   -0.00066019   -0.00824319
     atom   13 type  1   force =     0.00000000    0.00066019   -0.00824319
     atom   14 type  1   force =     0.00049654    0.00094804   -0.00488962
     atom   15 type  1   force =     0.00028759    0.00061315   -0.00180915
     atom   16 type  1   force =     0.00000000   -0.00018702    0.00068210
     atom   17 type  1   force =     0.00042294   -0.00074441    0.00098374
     atom   18 type  1   force =    -0.00028759   -0.00061315   -0.00180915
     atom   19 type  1   force =    -0.00049654   -0.00094804   -0.00488962
     atom   20 type  1   force =     0.00087401    0.00101210   -0.00388855
     atom   21 type  1   force =     0.00087401   -0.00101210   -0.00388855
     atom   22 type  1   force =    -0.00049654    0.00094804   -0.00488962
     atom   23 type  1   force =    -0.00028759    0.00061315   -0.00180915
     atom   24 type  1   force =     0.00042294    0.00074441    0.00098374
     atom   25 type  1   force =     0.00000000    0.00550826    0.00729325
     atom   26 type  1   force =     0.00480674    0.00398686    0.00804283
     atom   27 type  1   force =     0.00480674   -0.00398686    0.00804283
     atom   28 type  1   force =     0.00000000   -0.00550826    0.00729325
     atom   29 type  1   force =    -0.00480674   -0.00398686    0.00804283
     atom   30 type  1   force =    -0.00480674    0.00398686    0.00804283
     atom   31 type  2   force =     0.00000000   -0.00346197    0.00150395
     atom   32 type  2   force =    -0.00277981   -0.00177743    0.00119814
     atom   33 type  2   force =    -0.00277981    0.00177743    0.00119814
     atom   34 type  2   force =     0.00000000    0.00346197    0.00150395
     atom   35 type  2   force =     0.00277981    0.00177743    0.00119814
     atom   36 type  2   force =     0.00277981   -0.00177743    0.00119814

     Total force =     0.031537     Total SCF correction =     0.002541

     number of scf cycles    =   4
     number of bfgs steps    =   3

     energy   old            =    -351.2589950852 Ry
     energy   new            =    -351.2608100588 Ry

     CASE: energy  _new < energy  _old

     new trust radius        =       0.0324461806 bohr
     new conv_thr            =       0.0000008243 Ry


ATOMIC_POSITIONS (angstrom)
C        1.230490709   0.001226496   0.003252337
C        0.000000000   0.711663883   0.005189882
C        0.000000000   2.132947973  -0.001782379
C        1.231144063   2.840825241  -0.016301556
C        1.231144063   4.260583070  -0.016301556
C        0.000000000   4.968460338  -0.001782379
C        0.000000000   6.389744428   0.005189882
C        1.230490709   7.100181815   0.003252337
C        3.690000000   0.000822097   0.003239276
C        2.460103250   0.712098406  -0.006053138
C        2.460267761   2.132247418  -0.027549694
C        3.690000000   2.841973131  -0.037269624
C        3.690000000   4.259435180  -0.037269624
C        2.460267761   4.969160893  -0.027549694
C        2.460103250   6.389309905  -0.006053138
C        3.690000000   7.100586214   0.003239276
C        6.149509291   0.001226496   0.003252337
C        4.919896750   0.712098406  -0.006053138
C        4.919732239   2.132247418  -0.027549694
C        6.148855937   2.840825241  -0.016301556
C        6.148855937   4.260583070  -0.016301556
C        4.919732239   4.969160893  -0.027549694
C        4.919896750   6.389309905  -0.006053138
C        6.149509291   7.100181815   0.003252337
C        3.690000000   2.155416461   3.042839478
C        2.482948197   2.853165920   3.037277848
C        2.482948197   4.248242391   3.037277848
C        3.690000000   4.945991850   3.042839478
C        4.897051803   4.248242391   3.037277848
C        4.897051803   2.853165920   3.037277848
H        3.690000000   1.072761314   3.001548602
H        1.545046242   2.311425591   3.002491585
H        1.545046242   4.789982720   3.002491585
H        3.690000000   6.028646997   3.001548602
H        5.834953758   4.789982720   3.002491585
H        5.834953758   2.311425591   3.002491585



     Writing output data file batch_graph+benzene.save/
     NEW-OLD atomic charge density approx. for the potential

     negative rho (up, down):  2.162E-04 0.000E+00

     total cpu time spent up to now is      785.2 secs

     Self-consistent Calculation

     iteration #  1     ecut=    32.00 Ry     beta= 0.50
     Davidson diagonalization with overlap
     ethr =  1.00E-06,  avg # of iterations =  4.0

     negative rho (up, down):  2.153E-04 0.000E+00

     total cpu time spent up to now is      835.7 secs

     total energy              =    -351.26279925 Ry
     Harris-Foulkes estimate   =    -351.26364392 Ry
     estimated scf accuracy    <       0.00189014 Ry

     iteration #  2     ecut=    32.00 Ry     beta= 0.50
     Davidson diagonalization with overlap
     ethr =  1.50E-06,  avg # of iterations =  3.1

     negative rho (up, down):  2.169E-04 0.000E+00

     total cpu time spent up to now is      864.0 secs

     total energy              =    -351.26312821 Ry
     Harris-Foulkes estimate   =    -351.26318133 Ry
     estimated scf accuracy    <       0.00022472 Ry

     iteration #  3     ecut=    32.00 Ry     beta= 0.50
     Davidson diagonalization with overlap
     ethr =  1.78E-07,  avg # of iterations =  2.7

     negative rho (up, down):  2.189E-04 0.000E+00

     total cpu time spent up to now is      890.8 secs

     total energy              =    -351.26316411 Ry
     Harris-Foulkes estimate   =    -351.26316541 Ry
     estimated scf accuracy    <       0.00004254 Ry

     iteration #  4     ecut=    32.00 Ry     beta= 0.50
     Davidson diagonalization with overlap
     ethr =  3.38E-08,  avg # of iterations =  2.0

     negative rho (up, down):  2.228E-04 0.000E+00

     total cpu time spent up to now is      917.0 secs

     total energy              =    -351.26317023 Ry
     Harris-Foulkes estimate   =    -351.26316939 Ry
     estimated scf accuracy    <       0.00000478 Ry

     iteration #  5     ecut=    32.00 Ry     beta= 0.50
     Davidson diagonalization with overlap
     ethr =  3.79E-09,  avg # of iterations =  2.1

     negative rho (up, down):  2.149E-04 0.000E+00

     total cpu time spent up to now is      942.7 secs

     End of self-consistent calculation

          k = 0.0000 0.0000 0.0000 ( 31971 PWs)   bands (ev):

   -21.9339 -20.4791 -20.4773 -20.0032 -19.9994 -19.5572 -18.5906 -18.5900
   -18.5888 -18.5828 -16.8527 -16.8208 -16.7305 -15.6570 -15.0854 -15.0812
   -15.0793 -15.0763 -13.2725 -13.2439 -13.1070 -13.1033 -13.1032 -13.1029
   -12.9664 -12.9589 -11.3673 -10.2946 -10.2905 -10.0229  -9.9398  -9.9357
    -9.7452  -9.3154  -9.1076  -9.1070  -9.1020  -9.1006  -8.9650  -8.9244
    -8.9205  -8.7778  -8.6785  -8.3881  -8.2350  -7.8321  -7.7185  -7.6128
    -7.6115  -7.0801  -6.7869  -6.7200  -6.2143  -6.2082  -6.1494  -6.1014
    -5.6425  -5.6330  -4.9003  -4.5037  -4.3866  -2.4128  -2.3953  -2.3773
    -2.3702  -0.7184  -0.0354   0.4283   0.5678   0.6872   1.3345   1.3438
     1.3469   1.3639   1.5754   1.9894

          k = 0.0000 0.0722 0.0000 ( 31929 PWs)   bands (ev):

   -21.8421 -21.1115 -19.9151 -19.9098 -19.6803 -19.5512 -19.2000 -19.1927
   -17.8237 -17.8218 -17.6093 -16.8307 -16.8208 -15.9538 -15.9513 -14.6667
   -14.5527 -14.5510 -13.7069 -13.7034 -13.2597 -13.2428 -12.4443 -12.4418
   -12.3818 -12.3785 -11.5723 -11.3584 -10.7533 -10.7498 -10.1461 -10.1460
    -9.9206  -9.7532  -9.3140  -9.1181  -8.8745  -8.6923  -8.6765  -8.6134
    -8.6098  -8.4407  -8.4385  -8.3635  -8.1762  -7.7777  -7.6229  -7.4342
    -7.1095  -6.9669  -6.8680  -6.7667  -6.7097  -6.6909  -5.9978  -5.8336
    -5.4219  -5.3731  -5.2949  -4.5024  -4.4624  -3.4114  -3.3819  -1.4091
    -1.4073  -0.0906   0.1074   0.3511   0.4318   0.5840   0.5851   0.8173
     1.3081   1.7878   1.8533   2.2002

          k = 0.0000-0.1443 0.0000 ( 31940 PWs)   bands (ev):

   -21.5680 -21.5668 -19.6782 -19.6428 -19.6426 -19.6416 -19.5238 -18.7073
   -18.6988 -16.9418 -16.9387 -16.9283 -16.9202 -16.8123 -16.8085 -14.1745
   -14.1701 -14.1696 -14.1683 -13.2622 -13.2432 -13.1727 -13.1690 -11.5724
   -11.5691 -11.5625 -11.5573 -11.3522 -11.3473 -11.3419 -11.3407 -11.3400
    -9.7623  -9.6227  -9.6090  -9.3134  -8.7267  -8.6760  -8.6065  -8.6045
    -8.3042  -8.3015  -8.2992  -8.2956  -7.6186  -7.3427  -7.3277  -7.3264
    -6.9958  -6.9718  -6.9447  -6.7493  -6.7040  -6.3523  -6.3342  -6.3210
    -6.2637  -4.7259  -4.6196  -4.4142  -4.4041  -4.3243  -4.1933  -0.5210
    -0.4816  -0.4546  -0.4510   0.3541   0.4484   0.5664   0.8775   1.1882
     1.2497   1.4064   1.4659   2.0576

          k = 0.0833 0.0000 0.0000 ( 31951 PWs)   bands (ev):

   -21.8115 -20.8395 -20.3596 -20.3575 -19.5716 -19.4063 -19.3923 -18.9362
   -17.5810 -17.5799 -16.8414 -16.8284 -16.6366 -16.2950 -15.8094 -15.5560
   -14.9049 -14.6466 -14.6447 -14.1539 -13.2532 -13.2512 -12.4286 -12.1863
   -11.7338 -11.5128 -11.5125 -11.3331 -10.2016  -9.9656  -9.9648  -9.8835
    -9.7110  -9.4742  -9.3180  -9.1796  -9.1795  -9.0035  -9.0032  -8.8790
    -8.7732  -8.7449  -8.6021  -8.2316  -8.1154  -8.0675  -8.0667  -7.6840
    -7.3002  -7.0921  -6.9247  -6.7515  -6.7323  -6.4731  -6.1158  -5.8933
    -5.2643  -5.2640  -4.7989  -4.5366  -4.3536  -3.6740  -3.3903  -1.4332
    -1.1173  -0.7523  -0.0385  -0.0296   0.1728   0.4828   0.5297   0.8613
     1.5607   1.7402   2.1370   2.2053

          k = 0.0833 0.0722 0.0000 ( 31951 PWs)   bands (ev):

   -21.7199 -20.9905 -20.7490 -20.0305 -19.5894 -19.5226 -18.8488 -18.6179
   -18.1601 -17.4992 -16.9028 -16.8304 -16.8255 -16.6255 -16.2592 -15.1627
   -14.6736 -14.5758 -14.0591 -13.9377 -13.2519 -13.2494 -12.2442 -12.2311
   -12.0116 -11.7988 -11.5363 -11.3261 -10.7493 -10.3645  -9.7855  -9.7476
    -9.7205  -9.7060  -9.3825  -9.3163  -9.1769  -8.9967  -8.8263  -8.7917
    -8.6812  -8.6613  -8.5210  -8.4974  -8.1796  -7.8211  -7.5431  -7.3618
    -7.3486  -7.0271  -6.7844  -6.7486  -6.4531  -6.4029  -6.1567  -6.0679
    -5.7722  -5.2084  -4.7127  -4.5379  -4.4857  -3.9931  -3.7959  -1.0847
    -0.7528  -0.5715  -0.1117   0.2906   0.5047   0.5204   0.6589   0.9905
     1.4481   1.6176   1.6683   1.9118

          k = 0.0833-0.1443 0.0000 ( 31876 PWs)   bands (ev):

   -21.4462 -21.4450 -20.4783 -20.4781 -19.5609 -18.5927 -18.5905 -18.5860
   -18.5835 -17.6866 -17.6776 -16.8301 -16.8286 -16.3307 -16.3298 -15.2772
   -15.2696 -13.2572 -13.2497 -13.1118 -13.1046 -13.0985 -13.0959 -13.0307
   -13.0249 -11.4112 -11.4104 -11.3183 -10.7245 -10.7210  -9.9456  -9.9392
    -9.7263  -9.4934  -9.4670  -9.3176  -9.1073  -9.1068  -9.1039  -9.1022
    -8.7766  -8.7235  -8.3089  -8.2718  -7.6123  -7.6038  -7.2931  -7.2784
    -7.1552  -6.7748  -6.7614  -6.6300  -6.6251  -6.2207  -6.1700  -6.1653
    -6.1347  -5.2097  -5.1451  -4.5253  -4.4320  -4.1478  -4.1465  -0.9291
    -0.9229   0.3820   0.4047   0.5008   0.5064   0.5383   1.0585   1.3207
     1.3452   1.3641   1.3731   1.3759

          k =-0.1667 0.0000 0.0000 ( 31854 PWs)   bands (ev):

   -21.4475 -21.4436 -20.0077 -20.0032 -19.9992 -19.9949 -19.5486 -17.6837
   -17.6801 -16.8371 -16.8357 -16.7504 -16.7485 -16.3369 -16.3220 -15.6606
   -15.6575 -15.2713 -15.2688 -13.2675 -13.2416 -13.0316 -13.0254 -11.4088
   -11.4076 -11.2974 -10.7324 -10.7183 -10.2913 -10.2893 -10.2874 -10.2832
    -9.6761  -9.4830  -9.4819  -9.3224  -8.9628  -8.9620  -8.9340  -8.9309
    -8.9271  -8.9216  -8.7451  -8.7192  -7.9345  -7.7468  -7.7245  -7.7230
    -7.3008  -7.2819  -6.9905  -6.8055  -6.7514  -6.6222  -6.6205  -5.2363
    -5.1135  -4.7609  -4.7492  -4.7007  -4.4991  -4.1674  -3.9892  -0.9370
    -0.9216  -0.6762  -0.6610   0.2304   0.4300   0.5026   0.5862   0.6794
     0.8953   1.3602   1.4062   2.2044

          k =-0.1667 0.0722 0.0000 ( 31908 PWs)   bands (ev):

   -21.3563 -21.3524 -20.6301 -20.6272 -19.5628 -19.2031 -19.1922 -17.6017
   -17.5979 -17.1725 -17.1720 -17.0079 -17.0017 -16.8280 -16.8224 -15.2595
   -15.2580 -14.3257 -14.3219 -13.5855 -13.5825 -13.2583 -13.2381 -11.5331
   -11.5323 -11.2918 -10.8397 -10.8392 -10.6292 -10.6150  -9.7665  -9.7499
    -9.6814  -9.3856  -9.3787  -9.3235  -9.2766  -9.2660  -9.2318  -9.2317
    -8.7875  -8.7733  -8.4575  -8.4282  -7.9239  -7.9180  -7.6618  -7.6463
    -7.2191  -6.9266  -6.8168  -6.7164  -6.6670  -6.6566  -6.6458  -5.1911
    -5.0710  -4.9261  -4.8502  -4.8109  -4.7264  -4.4593  -4.3083  -0.5226
    -0.5178  -0.2871  -0.2697   0.1349   0.2495   0.5517   0.5915   0.6720
     1.0047   1.4884   1.5168   1.7006

          k =-0.1667-0.1443 0.0000 ( 31784 PWs)   bands (ev):

   -21.0841 -21.0820 -21.0796 -21.0793 -19.5593 -18.2533 -18.2468 -18.2434
   -18.2384 -17.3660 -17.3628 -17.3596 -17.3546 -16.8293 -16.8287 -14.4775
   -14.4717 -14.4661 -14.4604 -13.2620 -13.2369 -12.9391 -12.9353 -12.9302
   -12.9265 -11.2849 -10.3150 -10.3135 -10.3018 -10.2984  -9.9510  -9.9493
    -9.9295  -9.9286  -9.6940  -9.3217  -9.1312  -9.1253  -9.0846  -9.0007
    -8.6545  -8.6361  -8.4008  -8.4002  -8.3904  -8.3871  -7.1394  -7.0790
    -7.0737  -7.0675  -7.0663  -6.8410  -6.7375  -5.8847  -5.7886  -5.7435
    -5.7223  -5.1048  -4.9658  -4.9605  -4.9328  -4.4421  -4.4315  -0.2232
    -0.1771  -0.1226  -0.1142   0.5197   0.5393   0.7849   1.0250   1.0594
     1.0620   1.0957   1.1894   1.3812

     the Fermi energy is    -2.3889 ev

!    total energy              =    -351.26317096 Ry
     Harris-Foulkes estimate   =    -351.26317093 Ry
[...]
     atom   31 type  2   force =     0.00000000    0.00007851   -0.00001082
     atom   32 type  2   force =    -0.00007210    0.00000423    0.00000049
     atom   33 type  2   force =    -0.00007210   -0.00000423    0.00000049
     atom   34 type  2   force =     0.00000000   -0.00007851   -0.00001082
     atom   35 type  2   force =     0.00007210   -0.00000423    0.00000049
     atom   36 type  2   force =     0.00007210    0.00000423    0.00000049

     Total force =     0.000446     Total SCF correction =     0.000139
     SCF correction compared to forces is large: reduce conv_thr to get better values

     number of scf cycles    =  37
     number of bfgs steps    =  36

     energy   old            =    -351.2830045168 Ry
     energy   new            =    -351.2830050259 Ry

     CASE: energy  _new < energy  _old

     new trust radius        =       0.0003762365 bohr
     new conv_thr            =       0.0000000100 Ry


ATOMIC_POSITIONS (angstrom)
C        1.230149924   0.000352601  -0.170933854
C        0.000000000   0.710379639  -0.173713341
C        0.000000000   2.131077303  -0.187578242
C        1.230367298   2.840593337  -0.195854499
C        1.230367298   4.260814974  -0.195854499
C        0.000000000   4.970331009  -0.187578242
C        0.000000000   6.391028672  -0.173713341
C        1.230149924   7.101055710  -0.170933854
C        3.690000000   0.000329718  -0.174360545
C        2.460326024   0.710762148  -0.180056380
C        2.460514999   2.131041738  -0.196775798
C        3.690000000   2.840755465  -0.205398129
C        3.690000000   4.260652846  -0.205398129
C        2.460514999   4.970366573  -0.196775798
C        2.460326024   6.390646163  -0.180056380
C        3.690000000   7.101078593  -0.174360545
C        6.149850076   0.000352601  -0.170933854
C        4.919673976   0.710762148  -0.180056380
C        4.919485001   2.131041738  -0.196775798
C        6.149632702   2.840593337  -0.195854499
C        6.149632702   4.260814974  -0.195854499
C        4.919485001   4.970366573  -0.196775798
C        4.919673976   6.390646163  -0.180056380
C        6.149850076   7.101055710  -0.170933854
C        3.690000000   2.154915087   3.376341259
C        2.482157496   2.852986004   3.375395011
C        2.482157496   4.248422307   3.375395011
C        3.690000000   4.946493225   3.376341259
C        4.897842504   4.248422307   3.375395011
C        4.897842504   2.852986004   3.375395011
H        3.690000000   1.068062559   3.367927429
H        1.541000219   2.309531640   3.366616306
H        1.541000219   4.791876671   3.366616306
H        3.690000000   6.033345753   3.367927429
H        5.838999781   4.791876671   3.366616306
H        5.838999781   2.309531640   3.366616306



     Writing output data file batch_graph+benzene.save/
     NEW-OLD atomic charge density approx. for the potential

     negative rho (up, down):  2.036E-04 0.000E+00

     total cpu time spent up to now is     7205.2 secs

     Self-consistent Calculation

     iteration #  1     ecut=    32.00 Ry     beta= 0.50
     Davidson diagonalization with overlap
     ethr =  1.00E-06,  avg # of iterations =  2.0

     Threshold (ethr) on eigenvalues was too large:
     Diagonalizing with lowered threshold

     Davidson diagonalization with overlap
     ethr =  5.92E-11,  avg # of iterations =  3.1

     negative rho (up, down):  2.036E-04 0.000E+00

     total cpu time spent up to now is     7260.0 secs

     total energy              =    -351.28300522 Ry
     Harris-Foulkes estimate   =    -351.28300525 Ry
     estimated scf accuracy    <       0.00000010 Ry

     iteration #  2     ecut=    32.00 Ry     beta= 0.50
     Davidson diagonalization with overlap
     ethr =  7.96E-11,  avg # of iterations =  2.1

     negative rho (up, down):  2.036E-04 0.000E+00

     total cpu time spent up to now is     7286.8 secs

     total energy              =    -351.28300522 Ry
     Harris-Foulkes estimate   =    -351.28300524 Ry
     estimated scf accuracy    <       0.00000004 Ry

     iteration #  3     ecut=    32.00 Ry     beta= 0.50
     Davidson diagonalization with overlap
     ethr =  2.91E-11,  avg # of iterations =  2.7

     negative rho (up, down):  2.036E-04 0.000E+00

     total cpu time spent up to now is     7312.9 secs

     total energy              =    -351.28300524 Ry
     Harris-Foulkes estimate   =    -351.28300524 Ry
     estimated scf accuracy    <       0.00000001 Ry

     iteration #  4     ecut=    32.00 Ry     beta= 0.50
     Davidson diagonalization with overlap
     ethr =  9.22E-12,  avg # of iterations =  2.1

     negative rho (up, down):  2.036E-04 0.000E+00

     total cpu time spent up to now is     7338.0 secs

     End of self-consistent calculation

          k = 0.0000 0.0000 0.0000 ( 31971 PWs)   bands (ev):

   -21.8587 -20.4028 -20.4026 -19.9264 -19.9233 -19.5707 -18.5182 -18.5154
   -18.5143 -18.5127 -16.8356 -16.8260 -16.6777 -15.5864 -15.0114 -15.0088
   -15.0083 -15.0082 -13.2616 -13.2394 -13.0350 -13.0346 -13.0336 -13.0333
   -12.8944 -12.8944 -11.3363 -10.2219 -10.2198  -9.9397  -9.8699  -9.8669
    -9.7270  -9.3316  -9.0390  -9.0385  -9.0328  -9.0316  -8.8949  -8.8548
    -8.8548  -8.7338  -8.6605  -8.2313  -8.1957  -7.6914  -7.6416  -7.5422
    -7.5418  -7.2749  -6.8151  -6.7175  -6.1003  -6.0997  -6.0779  -6.0712
    -5.5722  -5.5671  -4.7555  -4.6129  -4.5508  -2.3121  -2.3085  -2.3077
    -2.3061  -0.6129  -0.1369   0.3692   0.4835   0.6722   1.4167   1.4240
     1.4305   1.4340   1.4620   1.8770

          k = 0.0000 0.0722 0.0000 ( 31929 PWs)   bands (ev):

   -21.7669 -21.0362 -19.8371 -19.8338 -19.6007 -19.5671 -19.1260 -19.1241
   -17.7505 -17.7481 -17.5349 -16.8352 -16.8260 -15.8824 -15.8804 -14.5960
   -14.4804 -14.4802 -13.6337 -13.6328 -13.2579 -13.2395 -12.3735 -12.3728
   -12.3096 -12.3083 -11.5025 -11.3303 -10.6813 -10.6795 -10.0771 -10.0759
    -9.8289  -9.7341  -9.3312  -8.9761  -8.8041  -8.7269  -8.6598  -8.5439
    -8.5437  -8.3718  -8.3713  -8.2953  -8.1060  -7.6092  -7.5419  -7.3569
    -7.2066  -6.8962  -6.7937  -6.7667  -6.7354  -6.7043  -5.9318  -5.7630
    -5.2812  -5.2732  -5.2101  -4.6115  -4.6100  -3.3260  -3.3227  -1.3252
    -1.3243  -0.0021   0.0423   0.3838   0.4626   0.5420   0.5463   0.8021
     1.2064   1.6769   1.8308   2.2119

          k = 0.0000-0.1443 0.0000 ( 31940 PWs)   bands (ev):

   -21.4989 -21.4855 -19.5880 -19.5757 -19.5726 -19.5600 -19.5449 -18.6330
   -18.6273 -16.8604 -16.8564 -16.8549 -16.8478 -16.8267 -16.8230 -14.1041
   -14.1024 -14.0948 -14.0946 -13.2550 -13.2397 -13.1038 -13.1038 -11.4981
   -11.4961 -11.4909 -11.4901 -11.3243 -11.2767 -11.2736 -11.2722 -11.2715
    -9.7415  -9.5109  -9.4986  -9.3308  -8.7545  -8.6593  -8.5415  -8.5312
    -8.2354  -8.2345  -8.2296  -8.2285  -7.4566  -7.2536  -7.2497  -7.2396
    -7.1129  -6.9247  -6.9086  -6.7736  -6.7146  -6.2630  -6.2515  -6.2310
    -6.2219  -4.6722  -4.6337  -4.3297  -4.3272  -4.3187  -4.2899  -0.3976
    -0.3935  -0.3848  -0.3795   0.2518   0.4005   0.4771   0.7874   1.1770
     1.2214   1.4902   1.5151   1.9753

          k = 0.0833 0.0000 0.0000 ( 31951 PWs)   bands (ev):

   -21.7363 -20.7643 -20.2830 -20.2829 -19.5708 -19.3322 -19.3308 -18.8639
   -17.5072 -17.5068 -16.8342 -16.8326 -16.5735 -16.2243 -15.7379 -15.4854
   -14.8349 -14.5742 -14.5737 -14.0812 -13.2507 -13.2488 -12.3589 -12.1155
   -11.6624 -11.4417 -11.4414 -11.3069 -10.1328  -9.8966  -9.8953  -9.7908
    -9.6935  -9.4032  -9.3352  -9.1104  -9.1104  -8.9350  -8.9348  -8.7574
    -8.7177  -8.6971  -8.6072  -8.0910  -8.0582  -7.9968  -7.9965  -7.6168
    -7.3315  -6.9793  -6.9409  -6.7973  -6.7664  -6.4243  -6.0452  -5.8274
    -5.1675  -5.1655  -4.6876  -4.6285  -4.4692  -3.6090  -3.3318  -1.3527
    -1.0216  -0.6529   0.0317   0.0472   0.0781   0.4118   0.4448   0.8459
     1.4494   1.6287   2.1145   2.2383

          k = 0.0833 0.0722 0.0000 ( 31951 PWs)   bands (ev):

   -21.6447 -20.9152 -20.6737 -19.9541 -19.5709 -19.4779 -18.7763 -18.5450
   -18.0868 -17.4247 -16.8375 -16.8333 -16.8191 -16.5586 -16.1883 -15.0911
   -14.6014 -14.5051 -13.9888 -13.8658 -13.2490 -13.2475 -12.1731 -12.1608
   -11.9406 -11.7290 -11.4666 -11.3014 -10.6787 -10.2941  -9.7011  -9.6853
    -9.6771  -9.6397  -9.3350  -9.3104  -9.1059  -8.8483  -8.7393  -8.7236
    -8.7024  -8.5914  -8.5144  -8.4293  -8.1114  -7.7062  -7.4753  -7.3292
    -7.2909  -7.1112  -6.7803  -6.7748  -6.3838  -6.3394  -6.0774  -6.0001
    -5.6832  -5.0760  -4.6578  -4.6180  -4.5657  -3.9703  -3.7270  -0.9934
    -0.6698  -0.4943  -0.0035   0.1904   0.4335   0.4443   0.7217   0.9740
     1.3547   1.5220   1.7340   1.8856

          k = 0.0833-0.1443 0.0000 ( 31876 PWs)   bands (ev):

   -21.3771 -21.3637 -20.4093 -20.3962 -19.5699 -18.5220 -18.5182 -18.5123
   -18.5084 -17.6111 -17.6056 -16.8352 -16.8327 -16.2618 -16.2559 -15.2020
   -15.2014 -13.2494 -13.2446 -13.0380 -13.0333 -13.0332 -13.0306 -12.9600
   -12.9557 -11.3436 -11.3362 -11.2954 -10.6548 -10.6517  -9.8738  -9.8686
    -9.7088  -9.3658  -9.3569  -9.3342  -9.0417  -9.0373  -9.0329  -9.0309
    -8.7413  -8.7320  -8.2134  -8.2104  -7.5432  -7.5369  -7.3078  -7.2222
    -7.2125  -6.7786  -6.7586  -6.5613  -6.5557  -6.0962  -6.0918  -6.0872
    -6.0782  -5.0742  -5.0580  -4.6260  -4.5993  -4.0799  -4.0700  -0.8469
    -0.8399   0.3902   0.4176   0.4417   0.5170   0.5213   0.9779   1.3516
     1.3862   1.4129   1.4227   1.4338

          k =-0.1667 0.0000 0.0000 ( 31854 PWs)   bands (ev):

   -21.3744 -21.3664 -19.9288 -19.9282 -19.9215 -19.9206 -19.5676 -17.6085
   -17.6082 -16.8393 -16.8332 -16.6779 -16.6774 -16.2637 -16.2559 -15.5884
   -15.5878 -15.2037 -15.1958 -13.2585 -13.2403 -12.9598 -12.9593 -11.3383
   -11.3381 -11.2759 -10.6590 -10.6498 -10.2200 -10.2190 -10.2184 -10.2168
    -9.6597  -9.3664  -9.3569  -9.3392  -8.8939  -8.8939  -8.8601  -8.8593
    -8.8562  -8.8554  -8.7843  -8.6991  -7.7262  -7.6534  -7.6491  -7.6388
    -7.2348  -7.2251  -7.2155  -6.8353  -6.7795  -6.5580  -6.5518  -5.0829
    -5.0453  -4.6765  -4.6732  -4.6575  -4.6238  -4.0849  -4.0444  -0.8459
    -0.8386  -0.6032  -0.5988   0.3526   0.4476   0.4862   0.5119   0.5639
     0.7859   1.3488   1.3775   2.1216

          k =-0.1667 0.0722 0.0000 ( 31908 PWs)   bands (ev):

   -21.2832 -21.2751 -20.5572 -20.5492 -19.5690 -19.1307 -19.1223 -17.5263
   -17.5261 -17.0996 -17.0927 -16.9307 -16.9294 -16.8381 -16.8326 -15.1874
   -15.1870 -14.2570 -14.2495 -13.5109 -13.5107 -13.2581 -13.2372 -11.4659
   -11.4604 -11.2708 -10.7701 -10.7701 -10.5557 -10.5465  -9.6900  -9.6813
    -9.6671  -9.3392  -9.2596  -9.2513  -9.2035  -9.2008  -9.1634  -9.1634
    -8.7874  -8.7228  -8.3851  -8.3800  -7.8520  -7.8516  -7.5873  -7.5803
    -7.3152  -6.8573  -6.7778  -6.7190  -6.6941  -6.5924  -6.5889  -5.0360
    -4.9988  -4.7613  -4.7578  -4.7337  -4.6519  -4.5921  -4.4982  -0.4463
    -0.4431  -0.1905  -0.1859   0.2781   0.3318   0.4528   0.4889   0.5621
     0.8963   1.4722   1.4926   1.6007

          k =-0.1667-0.1443 0.0000 ( 31784 PWs)   bands (ev):

   -21.0156 -21.0098 -21.0045 -20.9942 -19.5687 -18.1787 -18.1735 -18.1714
   -18.1651 -17.2961 -17.2904 -17.2839 -17.2772 -16.8385 -16.8341 -14.4035
   -14.3977 -14.3961 -14.3907 -13.2585 -13.2341 -12.8671 -12.8668 -12.8602
   -12.8597 -11.2652 -10.2449 -10.2376 -10.2359 -10.2254  -9.8798  -9.8761
    -9.8650  -9.8611  -9.6763  -9.3387  -8.9648  -8.9489  -8.9338  -8.9274
    -8.7435  -8.7005  -8.3273  -8.3272  -8.3243  -8.3207  -7.3053  -7.0063
    -7.0059  -7.0031  -6.9999  -6.8432  -6.7391  -5.7028  -5.6954  -5.6802
    -5.6735  -4.9352  -4.8932  -4.8782  -4.8571  -4.6052  -4.5944  -0.0841
    -0.0797  -0.0544  -0.0426   0.3930   0.5035   0.6761   1.0262   1.1352
     1.1414   1.1588   1.1674   1.2782

     the Fermi energy is    -2.3086 ev

!    total energy              =    -351.28300524 Ry
     Harris-Foulkes estimate   =    -351.28300524 Ry
     estimated scf accuracy    <          5.4E-10 Ry

     The total energy is the sum of the following terms:

     one-electron contribution =   -4566.22610428 Ry
     hartree contribution      =    2303.19637035 Ry
     xc contribution           =    -112.23324145 Ry
     ewald contribution        =    2023.98279092 Ry
     smearing contrib. (-TS)   =      -0.00282078 Ry

     convergence has been achieved in   4 iterations

     Forces acting on atoms (cartesian axes, Ry/au):

     atom    1 type  1   force =     0.00000172    0.00001876   -0.00000213
     atom    2 type  1   force =     0.00000000   -0.00001274    0.00000580
     atom    3 type  1   force =     0.00000000    0.00003756   -0.00000419
     atom    4 type  1   force =    -0.00000654   -0.00001937    0.00000556
     atom    5 type  1   force =    -0.00000654    0.00001937    0.00000556
     atom    6 type  1   force =     0.00000000   -0.00003756   -0.00000419
     atom    7 type  1   force =     0.00000000    0.00001274    0.00000580
     atom    8 type  1   force =     0.00000172   -0.00001876   -0.00000213
     atom    9 type  1   force =     0.00000000    0.00001142   -0.00001630
     atom   10 type  1   force =    -0.00000717   -0.00000553    0.00000618
     atom   11 type  1   force =    -0.00000282    0.00002357   -0.00001213
     atom   12 type  1   force =     0.00000000   -0.00000080    0.00002594
     atom   13 type  1   force =     0.00000000    0.00000080    0.00002594
     atom   14 type  1   force =    -0.00000282   -0.00002357   -0.00001213
     atom   15 type  1   force =    -0.00000717    0.00000553    0.00000618
     atom   16 type  1   force =     0.00000000   -0.00001142   -0.00001630
     atom   17 type  1   force =    -0.00000172    0.00001876   -0.00000213
     atom   18 type  1   force =     0.00000717   -0.00000553    0.00000618
     atom   19 type  1   force =     0.00000282    0.00002357   -0.00001213
     atom   20 type  1   force =     0.00000654   -0.00001937    0.00000556
     atom   21 type  1   force =     0.00000654    0.00001937    0.00000556
     atom   22 type  1   force =     0.00000282   -0.00002357   -0.00001213
     atom   23 type  1   force =     0.00000717    0.00000553    0.00000618
     atom   24 type  1   force =    -0.00000172   -0.00001876   -0.00000213
     atom   25 type  1   force =     0.00000000    0.00005267    0.00000907
     atom   26 type  1   force =    -0.00003107   -0.00002172   -0.00000662
     atom   27 type  1   force =    -0.00003107    0.00002172   -0.00000662
     atom   28 type  1   force =     0.00000000   -0.00005267    0.00000907
     atom   29 type  1   force =     0.00003107    0.00002172   -0.00000662
     atom   30 type  1   force =     0.00003107   -0.00002172   -0.00000662
     atom   31 type  2   force =     0.00000000    0.00005681   -0.00003690
     atom   32 type  2   force =    -0.00003285    0.00000340    0.00001743
     atom   33 type  2   force =    -0.00003285   -0.00000340    0.00001743
     atom   34 type  2   force =     0.00000000   -0.00005681   -0.00003690
     atom   35 type  2   force =     0.00003285   -0.00000340    0.00001743
     atom   36 type  2   force =     0.00003285    0.00000340    0.00001743

     Total force =     0.000196     Total SCF correction =     0.000037
     SCF correction compared to forces is large: reduce conv_thr to get better values

     bfgs converged in  38 scf cycles and  37 bfgs steps
     (criteria: energy <  1.0E-05 Ry, force <  1.0E-04 Ry/Bohr)

     End of BFGS Geometry Optimization

     Final energy   =    -351.2830052425 Ry
Begin final coordinates

ATOMIC_POSITIONS (angstrom)
C        1.230149924   0.000352601  -0.170933854
C        0.000000000   0.710379639  -0.173713341
C        0.000000000   2.131077303  -0.187578242
C        1.230367298   2.840593337  -0.195854499
C        1.230367298   4.260814974  -0.195854499
C        0.000000000   4.970331009  -0.187578242
C        0.000000000   6.391028672  -0.173713341
C        1.230149924   7.101055710  -0.170933854
C        3.690000000   0.000329718  -0.174360545
C        2.460326024   0.710762148  -0.180056380
C        2.460514999   2.131041738  -0.196775798
C        3.690000000   2.840755465  -0.205398129
C        3.690000000   4.260652846  -0.205398129
C        2.460514999   4.970366573  -0.196775798
C        2.460326024   6.390646163  -0.180056380
C        3.690000000   7.101078593  -0.174360545
C        6.149850076   0.000352601  -0.170933854
C        4.919673976   0.710762148  -0.180056380
C        4.919485001   2.131041738  -0.196775798
C        6.149632702   2.840593337  -0.195854499
C        6.149632702   4.260814974  -0.195854499
C        4.919485001   4.970366573  -0.196775798
C        4.919673976   6.390646163  -0.180056380
C        6.149850076   7.101055710  -0.170933854
C        3.690000000   2.154915087   3.376341259
C        2.482157496   2.852986004   3.375395011
C        2.482157496   4.248422307   3.375395011
C        3.690000000   4.946493225   3.376341259
C        4.897842504   4.248422307   3.375395011
C        4.897842504   2.852986004   3.375395011
H        3.690000000   1.068062559   3.367927429
H        1.541000219   2.309531640   3.366616306
H        1.541000219   4.791876671   3.366616306
H        3.690000000   6.033345753   3.367927429
H        5.838999781   4.791876671   3.366616306
H        5.838999781   2.309531640   3.366616306
End final coordinates



     Writing output data file batch_graph+benzene.save/

     init_run     :     18.35s CPU     18.65s WALL (       1 calls)
     electrons    :   6691.07s CPU   6790.50s WALL (      38 calls)
     update_pot   :    134.03s CPU    137.06s WALL (      37 calls)
     forces       :    369.96s CPU    373.79s WALL (      38 calls)

     Called by init_run:
     wfcinit      :     14.02s CPU     14.15s WALL (       1 calls)
     potinit      :      2.35s CPU      2.46s WALL (       1 calls)
     hinit0       :      1.12s CPU      1.13s WALL (       1 calls)

     Called by electrons:
     c_bands      :   5518.46s CPU   5578.28s WALL (     229 calls)
     sum_band     :    690.95s CPU    706.12s WALL (     229 calls)
     v_of_rho     :    402.45s CPU    421.39s WALL (     258 calls)
     newd         :    144.54s CPU    152.58s WALL (     258 calls)
     mix_rho      :      8.14s CPU      8.36s WALL (     229 calls)

     Called by c_bands:
     init_us_2    :     22.20s CPU     22.28s WALL (    4473 calls)
     cegterg      :   5469.00s CPU   5528.23s WALL (    2061 calls)

     Called by sum_band:
     sum_band:bec :      0.81s CPU      0.82s WALL (    2061 calls)
     addusdens    :    103.59s CPU    110.89s WALL (     229 calls)

     Called by *egterg:
     h_psi        :   2763.88s CPU   2808.56s WALL (    7566 calls)
     s_psi        :    819.78s CPU    822.00s WALL (    7566 calls)
     g_psi        :      4.37s CPU      4.40s WALL (    5496 calls)
     cdiaghg      :    190.71s CPU    191.21s WALL (    7143 calls)

     Called by h_psi:
     h_psi:pot    :   2757.65s CPU   2796.86s WALL (    7566 calls)
     h_psi:calbec :    879.78s CPU    882.60s WALL (    7566 calls)
     vloc_psi     :   1056.28s CPU   1090.71s WALL (    7566 calls)
     add_vuspsi   :    821.55s CPU    823.52s WALL (    7566 calls)

     General routines
     calbec       :   1445.65s CPU   1450.13s WALL (   10995 calls)
     fft          :    253.70s CPU    263.30s WALL (   16300 calls)
     ffts         :      1.19s CPU      1.23s WALL (     487 calls)
     fftw         :   1184.30s CPU   1223.37s WALL (  965766 calls)
     interpolate  :      4.90s CPU      5.09s WALL (     258 calls)

     Parallel routines
     fft_scatt_xy :    131.99s CPU    136.91s WALL (  982553 calls)
     fft_scatt_yz :    217.84s CPU    235.07s WALL (  982553 calls)

     PWSCF        :      2h 0m CPU      2h 2m WALL


   This run was terminated on:  20: 4:56   2Dec2020            

=------------------------------------------------------------------------------=
   JOB DONE.
=------------------------------------------------------------------------------=
