
     Program PWSCF v.6.4.1 starts on  2Dec2020 at 20: 4:56 

     This program is part of the open-source Quantum ESPRESSO suite
     for quantum simulation of materials; please cite
         "P. Giannozzi et al., J. Phys.:Condens. Matter 21 395502 (2009);
         "P. Giannozzi et al., J. Phys.:Condens. Matter 29 465901 (2017);
          URL http://www.quantum-espresso.org", 
     in publications or presentations arising from this work. More details at
     http://www.quantum-espresso.org/quote

     Parallel version (MPI), running on     8 processors

     MPI processes distributed on     1 nodes
     R & G space division:  proc/nbgrp/npool/nimage =       8
     Waiting for input...
     Reading input from standard input

     Current dimensions of program PWSCF are:
     Max number of different atomic species (ntypx) = 10
     Max number of k-points (npk) =  40000
     Max angular momentum in pseudopotentials (lmaxx) =  3

     IMPORTANT: XC functional enforced from input :
     Exchange-correlation      = VDW-DF ( 1  4  4  0 1 0)
     Any further DFT definition will be discarded
     Please, verify this is what you really want

               file C.pbe-rrkjus.UPF: wavefunction(s)  2S 2P renormalized

     Subspace diagonalization in iterative solution of the eigenvalue problem:
     a serial algorithm will be used

     Message from routine setup:
     DEPRECATED: symmetry with ibrav=0, use correct ibrav instead

     Parallelization info
     --------------------
     sticks:   dense  smooth     PW     G-vecs:    dense   smooth      PW
     Min         714     285     79               126154    31889    4649
     Max         715     286     80               126163    31900    4658
     Sum        5713    2283    637              1009261   255153   37237



     bravais-lattice index     =            0
     lattice parameter (alat)  =       4.6487  a.u.
     unit-cell volume          =   10440.3175 (a.u.)^3
     number of atoms/cell      =           36
     number of atomic types    =            2
     number of electrons       =       126.00
     number of Kohn-Sham states=           76
     kinetic-energy cutoff     =      32.0000  Ry
     charge density cutoff     =     320.0000  Ry
     convergence threshold     =      1.0E-06
     mixing beta               =       0.5000
     number of iterations used =            8  plain     mixing
     Exchange-correlation      = VDW-DF ( 1  4  4  0 1 0)
     nstep                     =          200


     celldm(1)=   4.648726  celldm(2)=   0.000000  celldm(3)=   0.000000
     celldm(4)=   0.000000  celldm(5)=   0.000000  celldm(6)=   0.000000

     crystal axes: (cart. coord. in units of alat)
               a(1) = (   3.000000   0.000000   0.000000 )  
               a(2) = (   0.000000   3.464102   0.000000 )  
               a(3) = (   0.000000   0.000000  10.000000 )  

     reciprocal axes: (cart. coord. in units 2 pi/alat)
               b(1) = (  0.333333  0.000000  0.000000 )  
               b(2) = (  0.000000  0.288675  0.000000 )  
               b(3) = (  0.000000  0.000000  0.100000 )  


     PseudoPot. # 1 for C  read from file:
     ../../pseudopotentials/C.pbe-rrkjus.UPF
     MD5 check sum: 00fb224312de0c5b6853bd333518df6f
     Pseudo is Ultrasoft, Zval =  4.0
     Generated by new atomic code, or converted to UPF format
     Using radial grid of  627 points,  4 beta functions with: 
                l(1) =   0
                l(2) =   0
                l(3) =   1
                l(4) =   1
     Q(r) pseudized with 0 coefficients 


     PseudoPot. # 2 for H  read from file:
     ../../pseudopotentials/H.pbe-rrkjus_psl.1.0.0.UPF
     MD5 check sum: 3f4114867bd07edc7f1424d066fc1888
     Pseudo is Ultrasoft, Zval =  1.0
     Generated using "atomic" code by A. Dal Corso v.6.3MaX
     Using radial grid of  929 points,  2 beta functions with: 
                l(1) =   0
                l(2) =   0
     Q(r) pseudized with 0 coefficients 


     vdW kernel table read from file vdW_kernel_table
     MD5 check sum: 48e77a2e26edf626eeb0eaa751ad5cac

     atomic species   valence    mass     pseudopotential
        C              4.00    12.01070     C ( 1.00)
        H              1.00     1.00790     H ( 1.00)

      2 Sym. Ops. (no inversion) found ( 1 have fractional translation)



   Cartesian axes

     site n.     atom                  positions (alat units)
         1           C   tau(   1) = (   0.5000000   0.0000000   0.0000000  )
         2           C   tau(   2) = (   0.0000000   0.2886752   0.0000000  )
         3           C   tau(   3) = (   0.0000000   0.8660255   0.0000000  )
         4           C   tau(   4) = (   0.5000000   1.1547006   0.0000000  )
         5           C   tau(   5) = (   0.5000000   1.7320509   0.0000000  )
         6           C   tau(   6) = (   0.0000000   2.0207261   0.0000000  )
         7           C   tau(   7) = (   0.0000000   2.5980764   0.0000000  )
         8           C   tau(   8) = (   0.5000000   2.8867516   0.0000000  )
         9           C   tau(   9) = (   1.5000001   0.0000000   0.0000000  )
        10           C   tau(  10) = (   1.0000001   0.2886752   0.0000000  )
        11           C   tau(  11) = (   1.0000001   0.8660255   0.0000000  )
        12           C   tau(  12) = (   1.5000001   1.1547006   0.0000000  )
        13           C   tau(  13) = (   1.5000001   1.7320509   0.0000000  )
        14           C   tau(  14) = (   1.0000001   2.0207261   0.0000000  )
        15           C   tau(  15) = (   1.0000001   2.5980764   0.0000000  )
        16           C   tau(  16) = (   1.5000001   2.8867516   0.0000000  )
        17           C   tau(  17) = (   2.5000002   0.0000000   0.0000000  )
        18           C   tau(  18) = (   2.0000002   0.2886752   0.0000000  )
        19           C   tau(  19) = (   2.0000002   0.8660255   0.0000000  )
        20           C   tau(  20) = (   2.5000002   1.1547006   0.0000000  )
        21           C   tau(  21) = (   2.5000002   1.7320509   0.0000000  )
        22           C   tau(  22) = (   2.0000002   2.0207261   0.0000000  )
        23           C   tau(  23) = (   2.0000002   2.5980764   0.0000000  )
        24           C   tau(  24) = (   2.5000002   2.8867516   0.0000000  )
        25           C   tau(  25) = (   1.6467548   0.8956798   1.2195123  )
        26           C   tau(  26) = (   1.0991457   1.0424556   1.2195123  )
        27           C   tau(  27) = (   0.9523899   1.5901556   1.2195123  )
        28           C   tau(  28) = (   1.3532454   1.9910718   1.2195123  )
        29           C   tau(  29) = (   1.9008546   1.8442960   1.2195123  )
        30           C   tau(  30) = (   2.0476104   1.2965959   1.2195123  )
        31           H   tau(  31) = (   1.7615134   0.4673949   1.2195123  )
        32           H   tau(  32) = (   0.7856197   0.7290164   1.2195123  )
        33           H   tau(  33) = (   0.5241489   1.7048389   1.2195123  )
        34           H   tau(  34) = (   1.2384868   2.4193567   1.2195123  )
        35           H   tau(  35) = (   2.2143805   2.1577351   1.2195123  )
        36           H   tau(  36) = (   2.4758513   1.1819126   1.2195123  )

     number of k points=    10  gaussian smearing, width (Ry)=  0.0200
                       cart. coord. in units 2pi/alat
        k(    1) = (   0.0000000   0.0000000   0.0000000), wk =   0.1250000
        k(    2) = (   0.0000000   0.0721688   0.0000000), wk =   0.2500000
        k(    3) = (   0.0000000  -0.1443376   0.0000000), wk =   0.1250000
        k(    4) = (   0.0833333   0.0000000   0.0000000), wk =   0.2500000
        k(    5) = (   0.0833333   0.0721688   0.0000000), wk =   0.2500000
        k(    6) = (   0.0833333  -0.1443376   0.0000000), wk =   0.2500000
        k(    7) = (  -0.1666667   0.0000000   0.0000000), wk =   0.1250000
        k(    8) = (  -0.1666667   0.0721688   0.0000000), wk =   0.2500000
        k(    9) = (  -0.1666667  -0.1443376   0.0000000), wk =   0.1250000
        k(   10) = (  -0.0833333   0.0721688   0.0000000), wk =   0.2500000

     Dense  grid:  1009261 G-vectors     FFT dimensions: (  80,  96, 270)

     Smooth grid:   255153 G-vectors     FFT dimensions: (  54,  60, 180)

     Estimated max dynamical RAM per process >     428.17 MB

     Estimated total dynamical RAM >       3.35 GB

     Initial potential from superposition of free atoms

     starting charge  125.99836, renormalised to  126.00000

     negative rho (up, down):  2.481E-04 0.000E+00


     %%%%%%%%%%%%%%%%%%%%%%%%%%%%%%%%%%%%%%%%%%%%%%%%%%%%%%%%%%%%%%%%%%%%%%%%
     %                                                                      %
     % You are using vdW-DF, which was implemented by the Thonhauser group. %
     % Please cite the following two papers that made this development      %
     % possible and the two reviews that describe the various versions:     %
     %                                                                      %
     %   T. Thonhauser et al., PRL 115, 136402 (2015).                      %
     %   T. Thonhauser et al., PRB 76, 125112 (2007).                       %
     %   K. Berland et al., Rep. Prog. Phys. 78, 066501 (2015).             %
     %   D.C. Langreth et al., J. Phys.: Condens. Matter 21, 084203 (2009). %
     %                                                                      %
     %                                                                      %
     % If you are calculating the stress with vdW-DF, please also cite:     %
     %                                                                      %
     %   R. Sabatini et al., J. Phys.: Condens. Matter 24, 424209 (2012).   %
     %                                                                      %
     %%%%%%%%%%%%%%%%%%%%%%%%%%%%%%%%%%%%%%%%%%%%%%%%%%%%%%%%%%%%%%%%%%%%%%%%


     Starting wfcs are  126 randomized atomic wfcs

     total cpu time spent up to now is       20.7 secs

     Self-consistent Calculation

     iteration #  1     ecut=    32.00 Ry     beta= 0.50
     Davidson diagonalization with overlap
     ethr =  1.00E-02,  avg # of iterations =  2.0

     negative rho (up, down):  2.105E-04 0.000E+00

     total cpu time spent up to now is       58.0 secs

     total energy              =    -350.86830712 Ry
     Harris-Foulkes estimate   =    -352.96760254 Ry
     estimated scf accuracy    <       4.24453339 Ry

     iteration #  2     ecut=    32.00 Ry     beta= 0.50
     Davidson diagonalization with overlap
     ethr =  3.37E-03,  avg # of iterations =  6.0

     negative rho (up, down):  5.090E-04 0.000E+00

     total cpu time spent up to now is       90.2 secs

     total energy              =    -351.20580080 Ry
     Harris-Foulkes estimate   =    -351.36062582 Ry
     estimated scf accuracy    <       0.39498069 Ry

     iteration #  3     ecut=    32.00 Ry     beta= 0.50
     Davidson diagonalization with overlap
     ethr =  3.13E-04,  avg # of iterations =  8.5

     negative rho (up, down):  4.344E-04 0.000E+00

     total cpu time spent up to now is      125.7 secs

     total energy              =    -351.24421128 Ry
     Harris-Foulkes estimate   =    -351.26103279 Ry
     estimated scf accuracy    <       0.05269166 Ry

     iteration #  4     ecut=    32.00 Ry     beta= 0.50
     Davidson diagonalization with overlap
     ethr =  4.18E-05,  avg # of iterations =  7.6

     negative rho (up, down):  2.851E-04 0.000E+00

     total cpu time spent up to now is      161.5 secs

     total energy              =    -351.25220231 Ry
     Harris-Foulkes estimate   =    -351.25752311 Ry
     estimated scf accuracy    <       0.01636899 Ry

     iteration #  5     ecut=    32.00 Ry     beta= 0.50
     Davidson diagonalization with overlap
     ethr =  1.30E-05,  avg # of iterations =  4.1

     negative rho (up, down):  2.983E-04 0.000E+00

     total cpu time spent up to now is      192.0 secs

     total energy              =    -351.25551561 Ry
     Harris-Foulkes estimate   =    -351.25584202 Ry
     estimated scf accuracy    <       0.00258745 Ry

     iteration #  6     ecut=    32.00 Ry     beta= 0.50
     Davidson diagonalization with overlap
     ethr =  2.05E-06,  avg # of iterations =  6.4

     negative rho (up, down):  2.413E-04 0.000E+00

     total cpu time spent up to now is      224.5 secs

     total energy              =    -351.25589165 Ry
     Harris-Foulkes estimate   =    -351.25596669 Ry
     estimated scf accuracy    <       0.00026531 Ry

     iteration #  7     ecut=    32.00 Ry     beta= 0.50
     Davidson diagonalization with overlap
     ethr =  2.11E-07,  avg # of iterations =  2.3

     negative rho (up, down):  2.221E-04 0.000E+00

     total cpu time spent up to now is      252.8 secs

     total energy              =    -351.25594184 Ry
     Harris-Foulkes estimate   =    -351.25594047 Ry
     estimated scf accuracy    <       0.00002148 Ry

     iteration #  8     ecut=    32.00 Ry     beta= 0.50
     Davidson diagonalization with overlap
     ethr =  1.70E-08,  avg # of iterations =  2.1

     negative rho (up, down):  2.141E-04 0.000E+00

     total cpu time spent up to now is      285.2 secs

     total energy              =    -351.25594599 Ry
     Harris-Foulkes estimate   =    -351.25594714 Ry
     estimated scf accuracy    <       0.00000375 Ry

     iteration #  9     ecut=    32.00 Ry     beta= 0.50
     Davidson diagonalization with overlap
     ethr =  2.98E-09,  avg # of iterations =  2.1

     negative rho (up, down):  2.109E-04 0.000E+00

     total cpu time spent up to now is      314.6 secs

     End of self-consistent calculation

          k = 0.0000 0.0000 0.0000 ( 31971 PWs)   bands (ev):

   -21.9150 -20.4616 -20.4575 -19.9892 -19.9772 -19.5531 -18.5742 -18.5698
   -18.5649 -18.5636 -16.8438 -16.8124 -16.7033 -15.6405 -15.0613 -15.0604
   -15.0596 -15.0590 -13.2606 -13.2303 -13.0836 -13.0826 -13.0818 -13.0794
   -12.9447 -12.9387 -11.3390 -10.2689 -10.2673 -10.0113  -9.9213  -9.9198
    -9.6667  -9.3223  -9.0915  -9.0894  -9.0798  -9.0760  -8.9420  -8.9060
    -8.9051  -8.7489  -8.6510  -8.3967  -8.2225  -7.8269  -7.7005  -7.5882
    -7.5872  -7.0336  -6.7806  -6.7704  -6.2079  -6.2053  -6.1208  -6.0611
    -5.6169  -5.6158  -4.9057  -4.4850  -4.3365  -2.3894  -2.3743  -2.3638
    -2.3421  -0.7243  -0.0523   0.4446   0.5705   0.6985   1.3592   1.3642
     1.3655   1.3806   1.5833   1.9853

          k = 0.0000 0.0722 0.0000 ( 31929 PWs)   bands (ev):

   -21.8233 -21.0926 -19.9018 -19.8877 -19.6664 -19.5433 -19.1775 -19.1734
   -17.8050 -17.8014 -17.5899 -16.8160 -16.8118 -15.9327 -15.9314 -14.6489
   -14.5312 -14.5308 -13.6848 -13.6841 -13.2477 -13.2253 -12.4232 -12.4231
   -12.3581 -12.3578 -11.5537 -11.3306 -10.7293 -10.7279 -10.1273 -10.1246
    -9.9116  -9.6679  -9.3217  -9.1083  -8.8514  -8.6623  -8.6515  -8.5943
    -8.5889  -8.4216  -8.4185  -8.3440  -8.1518  -7.7886  -7.6084  -7.4271
    -7.0913  -6.9417  -6.8942  -6.7753  -6.6895  -6.6480  -5.9816  -5.8068
    -5.4293  -5.3585  -5.2748  -4.4835  -4.4226  -3.3932  -3.3520  -1.3882
    -1.3849  -0.1150   0.0887   0.3778   0.4636   0.5671   0.6192   0.8286
     1.3035   1.7853   1.8630   2.2048

          k = 0.0000-0.1443 0.0000 ( 31940 PWs)   bands (ev):

   -21.5572 -21.5398 -19.6732 -19.6341 -19.6302 -19.6097 -19.5030 -18.6836
   -18.6828 -16.9389 -16.9185 -16.9065 -16.8995 -16.7998 -16.7833 -14.1594
   -14.1576 -14.1423 -14.1398 -13.2569 -13.2259 -13.1580 -13.1413 -11.5489
   -11.5481 -11.5385 -11.5370 -11.3341 -11.3313 -11.3255 -11.3184 -11.3054
    -9.6709  -9.6175  -9.5973  -9.3208  -8.6889  -8.6479  -8.5961  -8.5668
    -8.2880  -8.2832  -8.2757  -8.2752  -7.6354  -7.3305  -7.3280  -7.3205
    -6.9770  -6.9580  -6.9155  -6.7459  -6.7215  -6.3545  -6.3132  -6.2902
    -6.2214  -4.7457  -4.6111  -4.4013  -4.3820  -4.2951  -4.1255  -0.4930
    -0.4587  -0.4380  -0.4307   0.3350   0.4162   0.5533   0.8733   1.1979
     1.2508   1.4291   1.5187   2.0584

          k = 0.0833 0.0000 0.0000 ( 31951 PWs)   bands (ev):

   -21.7927 -20.8207 -20.3423 -20.3376 -19.5727 -19.3864 -19.3691 -18.9163
   -17.5613 -17.5608 -16.8313 -16.8217 -16.6112 -16.2748 -15.7866 -15.5394
   -14.8882 -14.6253 -14.6237 -14.1312 -13.2331 -13.2278 -12.4105 -12.1642
   -11.7099 -11.4918 -11.4913 -11.3016 -10.1843  -9.9465  -9.9453  -9.8769
    -9.6735  -9.4509  -9.3226  -9.1590  -9.1585  -8.9832  -8.9831  -8.8715
    -8.7467  -8.7243  -8.5927  -8.2308  -8.1031  -8.0431  -8.0422  -7.6667
    -7.2911  -7.0765  -6.8666  -6.7403  -6.7181  -6.4499  -6.0891  -5.8772
    -5.2523  -5.2491  -4.8067  -4.5221  -4.3060  -3.6513  -3.3573  -1.4182
    -1.0960  -0.7530  -0.0216  -0.0121   0.1625   0.5081   0.5481   0.8722
     1.5205   1.7399   2.1428   2.2109

          k = 0.0833 0.0722 0.0000 ( 31951 PWs)   bands (ev):

   -21.7011 -20.9716 -20.7302 -20.0124 -19.5865 -19.5031 -18.8290 -18.5980
   -18.1402 -17.4800 -16.8888 -16.8183 -16.8128 -16.6025 -16.2391 -15.1411
   -14.6516 -14.5578 -14.0406 -13.9167 -13.2309 -13.2284 -12.2217 -12.2113
   -11.9889 -11.7798 -11.5179 -11.2949 -10.7276 -10.3431  -9.7761  -9.7317
    -9.6903  -9.6710  -9.3590  -9.3213  -9.1529  -8.9856  -8.8190  -8.7721
    -8.6631  -8.6367  -8.5041  -8.4781  -8.1596  -7.8156  -7.5246  -7.3492
    -7.3366  -6.9826  -6.7714  -6.7334  -6.4301  -6.3779  -6.1467  -6.0475
    -5.7506  -5.2085  -4.7073  -4.5223  -4.4537  -3.9500  -3.7723  -1.0638
    -0.7345  -0.5495  -0.1273   0.2692   0.4955   0.5626   0.7021   1.0014
     1.4350   1.5776   1.6811   1.9404

          k = 0.0833-0.1443 0.0000 ( 31876 PWs)   bands (ev):

   -21.4354 -21.4180 -20.4675 -20.4516 -19.5589 -18.5798 -18.5695 -18.5677
   -18.5563 -17.6637 -17.6617 -16.8221 -16.8144 -16.3171 -16.3044 -15.2526
   -15.2498 -13.2390 -13.2351 -13.0888 -13.0876 -13.0753 -13.0720 -13.0138
   -13.0027 -11.3985 -11.3792 -11.2880 -10.7078 -10.6984  -9.9241  -9.9160
    -9.6752  -9.4884  -9.4552  -9.3223  -9.0963  -9.0889  -9.0793  -9.0701
    -8.7645  -8.6953  -8.3041  -8.2626  -7.5931  -7.5840  -7.2723  -7.2607
    -7.1188  -6.7767  -6.7555  -6.6102  -6.5972  -6.2266  -6.1544  -6.1397
    -6.0982  -5.2187  -5.1241  -4.5081  -4.3883  -4.1237  -4.1221  -0.9037
    -0.8975   0.3980   0.4139   0.4775   0.4982   0.5315   1.0566   1.3447
     1.3693   1.3852   1.3936   1.4034

          k =-0.1667 0.0000 0.0000 ( 31854 PWs)   bands (ev):

   -21.4302 -21.4232 -19.9914 -19.9845 -19.9832 -19.9738 -19.5410 -17.6650
   -17.6603 -16.8306 -16.8263 -16.7310 -16.7289 -16.3168 -16.2952 -15.6383
   -15.6354 -15.2595 -15.2474 -13.2410 -13.2151 -13.0082 -13.0001 -11.3924
   -11.3900 -11.2609 -10.7078 -10.6979 -10.2719 -10.2713 -10.2658 -10.2649
    -9.6842  -9.4824  -9.4680  -9.3231  -8.9437  -8.9432  -8.9064  -8.9051
    -8.9047  -8.9030  -8.7397  -8.7077  -7.9503  -7.7219  -7.7147  -7.7073
    -7.2707  -7.2601  -6.9158  -6.7419  -6.7192  -6.6108  -6.5988  -5.2407
    -5.0990  -4.7426  -4.7295  -4.7173  -4.4702  -4.1455  -3.9297  -0.9308
    -0.9100  -0.6531  -0.6339   0.2258   0.4542   0.5287   0.5746   0.7326
     0.8652   1.3701   1.4114   2.1899

          k =-0.1667 0.0722 0.0000 ( 31908 PWs)   bands (ev):

   -21.3390 -21.3320 -20.6127 -20.6070 -19.5617 -19.1859 -19.1685 -17.5831
   -17.5784 -17.1544 -17.1533 -16.9911 -16.9816 -16.8190 -16.8047 -15.2376
   -15.2366 -14.3119 -14.2995 -13.5649 -13.5601 -13.2285 -13.2128 -11.5194
   -11.5091 -11.2567 -10.8209 -10.8202 -10.6044 -10.5945  -9.7407  -9.7294
    -9.6815  -9.3871  -9.3636  -9.3233  -9.2519  -9.2507  -9.2120  -9.2117
    -8.7776  -8.7653  -8.4536  -8.4127  -7.9008  -7.8980  -7.6334  -7.6265
    -7.2025  -6.8573  -6.7779  -6.6945  -6.6437  -6.6379  -6.6270  -5.1968
    -5.0579  -4.9418  -4.8352  -4.7912  -4.7067  -4.4242  -4.2440  -0.5008
    -0.4933  -0.2878  -0.2552   0.1361   0.2776   0.5722   0.6240   0.6791
     0.9809   1.5005   1.5252   1.6876

          k =-0.1667-0.1443 0.0000 ( 31784 PWs)   bands (ev):

   -21.0750 -21.0669 -21.0564 -21.0512 -19.5571 -18.2337 -18.2285 -18.2212
   -18.2199 -17.3559 -17.3461 -17.3429 -17.3216 -16.8214 -16.8134 -14.4571
   -14.4496 -14.4461 -14.4372 -13.2331 -13.2152 -12.9233 -12.9182 -12.9115
   -12.9019 -11.2504 -10.3005 -10.2926 -10.2776 -10.2658  -9.9359  -9.9277
    -9.9135  -9.9037  -9.6855  -9.3232  -9.1367  -9.1135  -9.0743  -8.9906
    -8.6475  -8.6178  -8.3760  -8.3733  -8.3722  -8.3671  -7.0989  -7.0561
    -7.0529  -7.0516  -7.0425  -6.7584  -6.7352  -5.9054  -5.7697  -5.7372
    -5.6885  -5.1126  -4.9574  -4.9421  -4.9045  -4.4039  -4.3814  -0.2256
    -0.1450  -0.0950  -0.0915   0.5051   0.5613   0.7768   1.0415   1.0729
     1.0769   1.1496   1.1725   1.3891

          k =-0.0833 0.0722 0.0000 ( 31951 PWs)   bands (ev):

   -21.7011 -20.9716 -20.7302 -20.0124 -19.5863 -19.5033 -18.8290 -18.5981
   -18.1402 -17.4799 -16.8869 -16.8205 -16.8125 -16.6025 -16.2393 -15.1410
   -14.6514 -14.5576 -14.0408 -13.9167 -13.2311 -13.2287 -12.2214 -12.2110
   -11.9890 -11.7798 -11.5176 -11.2951 -10.7277 -10.3433  -9.7762  -9.7320
    -9.6873  -9.6720  -9.3606  -9.3204  -9.1526  -8.9861  -8.8185  -8.7719
    -8.6610  -8.6377  -8.5087  -8.4773  -8.1594  -7.8215  -7.5244  -7.3416
    -7.3364  -6.9700  -6.7668  -6.7388  -6.4301  -6.3931  -6.1473  -6.0475
    -5.7521  -5.2043  -4.7000  -4.5239  -4.4569  -3.9522  -3.7742  -1.0594
    -0.7365  -0.5458  -0.1212   0.2776   0.4890   0.5531   0.6942   1.0017
     1.4498   1.6205   1.6749   1.9270

     the Fermi energy is    -2.3674 ev

!    total energy              =    -351.25594630 Ry
     Harris-Foulkes estimate   =    -351.25594659 Ry
     estimated scf accuracy    <       0.00000040 Ry

     The total energy is the sum of the following terms:

     one-electron contribution =   -4816.23886972 Ry
     hartree contribution      =    2428.09199613 Ry
     xc contribution           =    -112.31199181 Ry
     ewald contribution        =    2149.20572882 Ry
     smearing contrib. (-TS)   =      -0.00280972 Ry

     convergence has been achieved in   9 iterations

     Forces acting on atoms (cartesian axes, Ry/au):

     atom    1 type  1   force =     0.00033562    0.00083317    0.00060895
     atom    2 type  1   force =     0.00007789   -0.00006328    0.00124644
     atom    3 type  1   force =     0.00019368    0.00117454    0.00043395
     atom    4 type  1   force =     0.00096083   -0.00080271   -0.00404145
     atom    5 type  1   force =     0.00122481    0.00070166   -0.00414402
     atom    6 type  1   force =    -0.00019368   -0.00117454    0.00043395
     atom    7 type  1   force =    -0.00007789    0.00006328    0.00124644
     atom    8 type  1   force =     0.00050363   -0.00088424    0.00062768
     atom    9 type  1   force =     0.00000082    0.00012949    0.00095821
     atom   10 type  1   force =    -0.00003023    0.00116142   -0.00131031
     atom   11 type  1   force =    -0.00023012    0.00125542   -0.00788472
     atom   12 type  1   force =     0.00007651    0.00121002   -0.00988765
     atom   13 type  1   force =    -0.00007651   -0.00121002   -0.00988765
     atom   14 type  1   force =    -0.00025832   -0.00126958   -0.00810289
     atom   15 type  1   force =    -0.00029156   -0.00115083   -0.00174573
     atom   16 type  1   force =    -0.00000082   -0.00012949    0.00095821
     atom   17 type  1   force =    -0.00050363    0.00088424    0.00062768
     atom   18 type  1   force =     0.00029156    0.00115083   -0.00174573
     atom   19 type  1   force =     0.00025832    0.00126958   -0.00810289
     atom   20 type  1   force =    -0.00122481   -0.00070166   -0.00414402
     atom   21 type  1   force =    -0.00096083    0.00080271   -0.00404145
     atom   22 type  1   force =     0.00023012   -0.00125542   -0.00788472
     atom   23 type  1   force =     0.00003023   -0.00116142   -0.00131031
     atom   24 type  1   force =    -0.00033562   -0.00083317    0.00060895
     atom   25 type  1   force =     0.00140717   -0.00350957    0.01212459
     atom   26 type  1   force =    -0.00319977   -0.00220138    0.00989741
     atom   27 type  1   force =    -0.00382078    0.00103035    0.01033968
     atom   28 type  1   force =    -0.00140717    0.00350957    0.01212459
     atom   29 type  1   force =     0.00319977    0.00220138    0.00989741
     atom   30 type  1   force =     0.00382078   -0.00103035    0.01033968
     atom   31 type  2   force =    -0.00144725    0.00519200    0.00005088
     atom   32 type  2   force =     0.00364555    0.00342429    0.00029553
     atom   33 type  2   force =     0.00533784   -0.00104723    0.00053344
     atom   34 type  2   force =     0.00144725   -0.00519200    0.00005088
     atom   35 type  2   force =    -0.00364555   -0.00342429    0.00029553
     atom   36 type  2   force =    -0.00533784    0.00104723    0.00053344

     Total force =     0.039054     Total SCF correction =     0.001443

     BFGS Geometry Optimization

     number of scf cycles    =   1
     number of bfgs steps    =   0

     energy   new            =    -351.2559463003 Ry

     new trust radius        =       0.0127005116 bohr
     new conv_thr            =       0.0000010000 Ry


ATOMIC_POSITIONS (angstrom)
C        1.230177604   0.000440892   0.000322242
C        0.000041219   0.710107347   0.000659588
C        0.000102489   2.131044033   0.000229636
C        1.230508447   2.840138550  -0.002138642
C        1.230648143   4.261216288  -0.002192923
C       -0.000102489   4.970364278   0.000229636
C       -0.000041219   6.391300964   0.000659588
C        1.230266511   7.100940394   0.000332154
C        3.690000432   0.000068524   0.000507064
C        2.459984004   0.710755427  -0.000693385
C        2.459878226   2.131086831  -0.004172415
C        3.690040485   2.841203637  -0.005232317
C        3.689959515   4.260204674  -0.005232317
C        2.459863301   4.970313987  -0.004287866
C        2.459845715   6.390658488  -0.000923800
C        3.689999568   7.101339787   0.000507064
C        6.149733489   0.000467917   0.000332154
C        4.920154285   0.710749823  -0.000923800
C        4.920136699   2.131094325  -0.004287866
C        6.149351857   2.840192023  -0.002192923
C        6.149491553   4.261269761  -0.002138642
C        4.920121774   4.970321480  -0.004172415
C        4.920015996   6.390652884  -0.000693385
C        6.149822396   7.100967419   0.000322242
C        4.051761186   2.201514881   3.006416058
C        2.702204863   2.563275636   3.005237483
C        2.340857044   3.912327781   3.005471525
C        3.328238814   4.899893430   3.006416058
C        4.677795137   4.538132675   3.005237483
C        5.039142956   3.189080530   3.005471525
H        4.332556785   1.152538875   3.000026926
H        1.934553526   1.795192357   3.000156386
H        1.292230810   4.193349278   3.000282287
H        3.047443215   5.948869436   3.000026926
H        5.445446474   5.306215954   3.000156386
H        6.087769190   2.908059033   3.000282287



     Writing output data file batch_graph+benzene.save/
     NEW-OLD atomic charge density approx. for the potential

     negative rho (up, down):  2.106E-04 0.000E+00

     total cpu time spent up to now is      329.3 secs

     Self-consistent Calculation

     iteration #  1     ecut=    32.00 Ry     beta= 0.50
     Davidson diagonalization with overlap
     ethr =  1.00E-06,  avg # of iterations =  3.0

     negative rho (up, down):  2.107E-04 0.000E+00

     total cpu time spent up to now is      371.5 secs

     total energy              =    -351.25717952 Ry
     Harris-Foulkes estimate   =    -351.25729755 Ry
     estimated scf accuracy    <       0.00027651 Ry

     iteration #  2     ecut=    32.00 Ry     beta= 0.50
     Davidson diagonalization with overlap
     ethr =  2.19E-07,  avg # of iterations =  2.0

     negative rho (up, down):  2.108E-04 0.000E+00

     total cpu time spent up to now is      401.7 secs

     total energy              =    -351.25722108 Ry
     Harris-Foulkes estimate   =    -351.25722832 Ry
     estimated scf accuracy    <       0.00003280 Ry

     iteration #  3     ecut=    32.00 Ry     beta= 0.50
     Davidson diagonalization with overlap
     ethr =  2.60E-08,  avg # of iterations =  2.0

     negative rho (up, down):  2.113E-04 0.000E+00

     total cpu time spent up to now is      431.1 secs

     total energy              =    -351.25722553 Ry
     Harris-Foulkes estimate   =    -351.25722659 Ry
     estimated scf accuracy    <       0.00000727 Ry

     iteration #  4     ecut=    32.00 Ry     beta= 0.50
     Davidson diagonalization with overlap
     ethr =  5.77E-09,  avg # of iterations =  2.0

     negative rho (up, down):  2.114E-04 0.000E+00

     total cpu time spent up to now is      460.4 secs

     total energy              =    -351.25722664 Ry
     Harris-Foulkes estimate   =    -351.25722704 Ry
     estimated scf accuracy    <       0.00000183 Ry

     iteration #  5     ecut=    32.00 Ry     beta= 0.50
     Davidson diagonalization with overlap
     ethr =  1.45E-09,  avg # of iterations =  2.1

     negative rho (up, down):  2.108E-04 0.000E+00

     total cpu time spent up to now is      488.6 secs

     End of self-consistent calculation

          k = 0.0000 0.0000 0.0000 ( 31971 PWs)   bands (ev):

   -21.9189 -20.4648 -20.4618 -19.9902 -19.9833 -19.5295 -18.5753 -18.5742
   -18.5725 -18.5668 -16.8384 -16.8107 -16.7077 -15.6418 -15.0679 -15.0656
   -15.0631 -15.0605 -13.2705 -13.2410 -13.0892 -13.0876 -13.0861 -13.0843
   -12.9499 -12.9428 -11.3491 -10.2769 -10.2737 -10.0137  -9.9235  -9.9212
    -9.7122  -9.3055  -9.0932  -9.0911  -9.0845  -9.0818  -8.9483  -8.9083
    -8.9048  -8.7577  -8.6652  -8.3942  -8.2272  -7.8240  -7.7054  -7.5957
    -7.5944  -7.0278  -6.7900  -6.7846  -6.2085  -6.2051  -6.1281  -6.0669
    -5.6250  -5.6164  -4.9033  -4.4830  -4.3395  -2.3977  -2.3785  -2.3630
    -2.3462  -0.7239  -0.0435   0.4348   0.5573   0.6979   1.3521   1.3581
     1.3616   1.3790   1.5848   1.9865

          k = 0.0000 0.0722 0.0000 ( 31929 PWs)   bands (ev):

   -21.8271 -21.0964 -19.9025 -19.8937 -19.6668 -19.5233 -19.1836 -19.1755
   -17.8073 -17.8071 -17.5939 -16.8108 -16.8093 -15.9370 -15.9353 -14.6511
   -14.5364 -14.5347 -13.6906 -13.6878 -13.2580 -13.2368 -12.4280 -12.4261
   -12.3646 -12.3618 -11.5559 -11.3409 -10.7361 -10.7332 -10.1301 -10.1290
    -9.9138  -9.7135  -9.3049  -9.1102  -8.8578  -8.6711  -8.6653  -8.5977
    -8.5906  -8.4245  -8.4210  -8.3461  -8.1589  -7.7816  -7.6131  -7.4279
    -7.0879  -6.9495  -6.9005  -6.7840  -6.7022  -6.6526  -5.9814  -5.8158
    -5.4271  -5.3624  -5.2795  -4.4817  -4.4213  -3.3973  -3.3564  -1.3916
    -1.3894  -0.1154   0.0955   0.3724   0.4599   0.5538   0.6093   0.8277
     1.3083   1.7912   1.8626   2.2053

          k = 0.0000-0.1443 0.0000 ( 31940 PWs)   bands (ev):

   -21.5596 -21.5451 -19.6650 -19.6351 -19.6339 -19.6181 -19.4893 -18.6880
   -18.6863 -16.9368 -16.9223 -16.9100 -16.9062 -16.7993 -16.7801 -14.1617
   -14.1607 -14.1506 -14.1446 -13.2663 -13.2375 -13.1591 -13.1462 -11.5546
   -11.5519 -11.5457 -11.5417 -11.3414 -11.3324 -11.3292 -11.3247 -11.3127
    -9.7158  -9.6188  -9.6004  -9.3041  -8.6982  -8.6620  -8.5995  -8.5773
    -8.2917  -8.2862  -8.2793  -8.2762  -7.6242  -7.3340  -7.3329  -7.3218
    -6.9797  -6.9559  -6.9163  -6.7549  -6.7363  -6.3558  -6.3197  -6.3006
    -6.2280  -4.7384  -4.6091  -4.4066  -4.3864  -4.2980  -4.1303  -0.4987
    -0.4628  -0.4416  -0.4334   0.3371   0.4078   0.5396   0.8822   1.1967
     1.2540   1.4259   1.5161   2.0663

          k = 0.0833 0.0000 0.0000 ( 31951 PWs)   bands (ev):

   -21.7966 -20.8246 -20.3454 -20.3420 -19.5497 -19.3908 -19.3714 -18.9204
   -17.5656 -17.5644 -16.8249 -16.8201 -16.6166 -16.2787 -15.7922 -15.5407
   -14.8894 -14.6305 -14.6284 -14.1372 -13.2437 -13.2392 -12.4130 -12.1700
   -11.7167 -11.4964 -11.4958 -11.3121 -10.1857  -9.9487  -9.9469  -9.8791
    -9.7190  -9.4571  -9.3058  -9.1628  -9.1622  -8.9870  -8.9861  -8.8772
    -8.7548  -8.7332  -8.6008  -8.2300  -8.1072  -8.0505  -8.0492  -7.6672
    -7.2841  -7.0798  -6.8711  -6.7492  -6.7309  -6.4541  -6.0981  -5.8769
    -5.2542  -5.2509  -4.8024  -4.5199  -4.3107  -3.6544  -3.3646  -1.4191
    -1.1013  -0.7527  -0.0260  -0.0175   0.1684   0.4966   0.5354   0.8715
     1.5227   1.7422   2.1403   2.2106

          k = 0.0833 0.0722 0.0000 ( 31951 PWs)   bands (ev):

   -21.7049 -20.9754 -20.7341 -20.0160 -19.5735 -19.4958 -18.8331 -18.6021
   -18.1443 -17.4840 -16.8905 -16.8172 -16.8083 -16.6068 -16.2429 -15.1463
   -14.6572 -14.5602 -14.0431 -13.9218 -13.2414 -13.2397 -12.2275 -12.2152
   -11.9949 -11.7828 -11.5201 -11.3055 -10.7326 -10.3476  -9.7781  -9.7379
    -9.7180  -9.6884  -9.3649  -9.3049  -9.1594  -8.9882  -8.8263  -8.7751
    -8.6709  -8.6438  -8.5118  -8.4799  -8.1632  -7.8154  -7.5264  -7.3474
    -7.3430  -6.9812  -6.7853  -6.7429  -6.4352  -6.3822  -6.1494  -6.0512
    -5.7539  -5.2091  -4.7074  -4.5209  -4.4534  -3.9565  -3.7754  -1.0693
    -0.7365  -0.5550  -0.1277   0.2743   0.4847   0.5532   0.6932   1.0003
     1.4390   1.5793   1.6786   1.9357

          k = 0.0833-0.1443 0.0000 ( 31876 PWs)   bands (ev):

   -21.4378 -21.4233 -20.4699 -20.4568 -19.5344 -18.5822 -18.5735 -18.5712
   -18.5626 -17.6680 -17.6653 -16.8202 -16.8086 -16.3196 -16.3088 -15.2571
   -15.2565 -13.2486 -13.2461 -13.0940 -13.0884 -13.0795 -13.0780 -13.0157
   -13.0076 -11.4016 -11.3870 -11.2987 -10.7101 -10.7027  -9.9287  -9.9224
    -9.7208  -9.4895  -9.4576  -9.3055  -9.0998  -9.0917  -9.0822  -9.0799
    -8.7755  -8.7043  -8.3063  -8.2655  -7.5970  -7.5856  -7.2764  -7.2612
    -7.1096  -6.7864  -6.7697  -6.6147  -6.6057  -6.2272  -6.1570  -6.1431
    -6.1046  -5.2184  -5.1284  -4.5061  -4.3885  -4.1265  -4.1254  -0.9083
    -0.9045   0.3941   0.4101   0.4758   0.4921   0.5227   1.0630   1.3414
     1.3635   1.3824   1.3894   1.4039

          k =-0.1667 0.0000 0.0000 ( 31854 PWs)   bands (ev):

   -21.4333 -21.4280 -19.9949 -19.9888 -19.9847 -19.9782 -19.5183 -17.6691
   -17.6642 -16.8288 -16.8199 -16.7350 -16.7321 -16.3220 -16.3013 -15.6440
   -15.6408 -15.2572 -15.2523 -13.2519 -13.2255 -13.0145 -13.0072 -11.3940
   -11.3921 -11.2717 -10.7149 -10.7029 -10.2741 -10.2731 -10.2699 -10.2681
    -9.7296  -9.4831  -9.4707  -9.3063  -8.9471  -8.9455  -8.9148  -8.9127
    -8.9105  -8.9057  -8.7524  -8.7171  -7.9442  -7.7260  -7.7174  -7.7097
    -7.2824  -7.2652  -6.9150  -6.7558  -6.7302  -6.6067  -6.6031  -5.2392
    -5.1020  -4.7455  -4.7322  -4.7074  -4.4707  -4.1528  -3.9384  -0.9343
    -0.9068  -0.6595  -0.6406   0.2232   0.4481   0.5189   0.5769   0.7161
     0.8710   1.3691   1.4111   2.1943

          k =-0.1667 0.0722 0.0000 ( 31908 PWs)   bands (ev):

   -21.3420 -21.3368 -20.6156 -20.6116 -19.5373 -19.1887 -19.1735 -17.5871
   -17.5822 -17.1577 -17.1576 -16.9946 -16.9853 -16.8183 -16.7995 -15.2429
   -15.2418 -14.3114 -14.3047 -13.5703 -13.5656 -13.2403 -13.2231 -11.5185
   -11.5146 -11.2677 -10.8238 -10.8226 -10.6116 -10.5995  -9.7534  -9.7355
    -9.7209  -9.3875  -9.3666  -9.3069  -9.2584  -9.2514  -9.2154  -9.2149
    -8.7844  -8.7760  -8.4566  -8.4172  -7.9055  -7.9027  -7.6433  -7.6298
    -7.1934  -6.8627  -6.7890  -6.7034  -6.6454  -6.6417  -6.6327  -5.1950
    -5.0600  -4.9371  -4.8376  -4.7939  -4.7120  -4.4261  -4.2490  -0.5070
    -0.4992  -0.2912  -0.2538   0.1331   0.2717   0.5615   0.6151   0.6729
     0.9861   1.4988   1.5244   1.6916

          k =-0.1667-0.1443 0.0000 ( 31784 PWs)   bands (ev):

   -21.0772 -21.0695 -21.0602 -21.0581 -19.5324 -18.2364 -18.2315 -18.2260
   -18.2254 -17.3576 -17.3490 -17.3480 -17.3276 -16.8202 -16.8075 -14.4616
   -14.4539 -14.4519 -14.4431 -13.2445 -13.2255 -12.9225 -12.9182 -12.9147
   -12.9096 -11.2615 -10.3056 -10.2944 -10.2874 -10.2744  -9.9387  -9.9324
    -9.9157  -9.9066  -9.7307  -9.3065  -9.1349  -9.1182  -9.0773  -8.9929
    -8.6588  -8.6267  -8.3836  -8.3809  -8.3735  -8.3712  -7.0899  -7.0610
    -7.0572  -7.0515  -7.0466  -6.7711  -6.7478  -5.9022  -5.7733  -5.7420
    -5.6952  -5.1103  -4.9592  -4.9449  -4.9084  -4.4061  -4.3812  -0.2273
    -0.1521  -0.1009  -0.0979   0.4976   0.5450   0.7748   1.0393   1.0734
     1.0751   1.1450   1.1748   1.3945

          k =-0.0833 0.0722 0.0000 ( 31951 PWs)   bands (ev):

   -21.7049 -20.9754 -20.7341 -20.0159 -19.5734 -19.4960 -18.8331 -18.6021
   -18.1443 -17.4839 -16.8891 -16.8175 -16.8094 -16.6069 -16.2431 -15.1463
   -14.6569 -14.5600 -14.0433 -13.9216 -13.2412 -13.2405 -12.2272 -12.2148
   -11.9950 -11.7829 -11.5198 -11.3057 -10.7327 -10.3479  -9.7783  -9.7385
    -9.7139  -9.6902  -9.3659  -9.3046  -9.1590  -8.9884  -8.8257  -8.7750
    -8.6701  -8.6446  -8.5154  -8.4792  -8.1629  -7.8211  -7.5264  -7.3443
    -7.3384  -6.9692  -6.7763  -6.7533  -6.4354  -6.3965  -6.1500  -6.0509
    -5.7554  -5.2051  -4.7005  -4.5228  -4.4555  -3.9588  -3.7774  -1.0648
    -0.7386  -0.5517  -0.1216   0.2826   0.4781   0.5437   0.6858   1.0007
     1.4538   1.6224   1.6719   1.9235

     the Fermi energy is    -2.3713 ev

!    total energy              =    -351.25722692 Ry
     Harris-Foulkes estimate   =    -351.25722707 Ry
     estimated scf accuracy    <       0.00000027 Ry

     The total energy is the sum of the following terms:

     one-electron contribution =   -4813.21207533 Ry
     hartree contribution      =    2426.57194648 Ry
     xc contribution           =    -112.31781929 Ry
     ewald contribution        =    2147.70352845 Ry
     smearing contrib. (-TS)   =      -0.00280723 Ry

     convergence has been achieved in   5 iterations

     Forces acting on atoms (cartesian axes, Ry/au):

     atom    1 type  1   force =     0.00034636   -0.00022602    0.00064981
     atom    2 type  1   force =     0.00007611    0.00076241    0.00195466
     atom    3 type  1   force =     0.00004543    0.00095007    0.00014344
     atom    4 type  1   force =    -0.00006609    0.00111958   -0.00403264
     atom    5 type  1   force =    -0.00036342   -0.00107619   -0.00412247
     atom    6 type  1   force =    -0.00004543   -0.00095007    0.00014344
     atom    7 type  1   force =    -0.00007611   -0.00076241    0.00195466
     atom    8 type  1   force =     0.00011998    0.00020652    0.00059196
     atom    9 type  1   force =     0.00010290    0.00062377    0.00131383
     atom   10 type  1   force =     0.00016959    0.00043474   -0.00161580
     atom   11 type  1   force =     0.00065165    0.00021019   -0.00704843
     atom   12 type  1   force =    -0.00005226    0.00009785   -0.01000339
     atom   13 type  1   force =     0.00005226   -0.00009785   -0.01000339
     atom   14 type  1   force =     0.00058509   -0.00023143   -0.00724895
     atom   15 type  1   force =     0.00026765   -0.00044353   -0.00192301
     atom   16 type  1   force =    -0.00010290   -0.00062377    0.00131383
     atom   17 type  1   force =    -0.00011998   -0.00020652    0.00059196
     atom   18 type  1   force =    -0.00026765    0.00044353   -0.00192301
     atom   19 type  1   force =    -0.00058509    0.00023143   -0.00724895
     atom   20 type  1   force =     0.00036342    0.00107619   -0.00412247
     atom   21 type  1   force =     0.00006609   -0.00111958   -0.00403264
     atom   22 type  1   force =    -0.00065165   -0.00021019   -0.00704843
     atom   23 type  1   force =    -0.00016959   -0.00043474   -0.00161580
     atom   24 type  1   force =    -0.00034636    0.00022602    0.00064981
     atom   25 type  1   force =    -0.00199083    0.00555782    0.01069959
     atom   26 type  1   force =     0.00413954    0.00367087    0.00939687
     atom   27 type  1   force =     0.00502218   -0.00126097    0.00969628
     atom   28 type  1   force =     0.00199083   -0.00555782    0.01069959
     atom   29 type  1   force =    -0.00413954   -0.00367087    0.00939687
     atom   30 type  1   force =    -0.00502218    0.00126097    0.00969628
     atom   31 type  2   force =     0.00011573   -0.00054857    0.00041561
     atom   32 type  2   force =    -0.00046378   -0.00058497    0.00043726
     atom   33 type  2   force =    -0.00061740    0.00051613    0.00069537
     atom   34 type  2   force =    -0.00011573    0.00054857    0.00041561
     atom   35 type  2   force =     0.00046378    0.00058497    0.00043726
     atom   36 type  2   force =     0.00061740   -0.00051613    0.00069537

     Total force =     0.035935     Total SCF correction =     0.001371

     number of scf cycles    =   2
     number of bfgs steps    =   1

     energy   old            =    -351.2559463003 Ry
     energy   new            =    -351.2572269218 Ry

     CASE: energy  _new < energy  _old

     new trust radius        =       0.0139705628 bohr
     new conv_thr            =       0.0000010000 Ry


ATOMIC_POSITIONS (angstrom)
C        1.230396573   0.000668210   0.000725766
C        0.000090792   0.710307146   0.001667470
C        0.000183866   2.131734016   0.000424101
C        1.230827264   2.840182212  -0.004735187
C        1.230973240   4.261149711  -0.004851722
C       -0.000183866   4.969674295   0.000424101
C       -0.000090792   6.391101165   0.001667470
C        1.230478659   7.100689428   0.000725418
C        3.690030692   0.000295766   0.001226882
C        2.460022764   0.711290694  -0.001625042
C        2.459987060   2.131589769  -0.008999605
C        3.690052181   2.841657879  -0.011624909
C        3.689947819   4.259750432  -0.011624909
C        2.459942825   4.969799879  -0.009250225
C        2.459821088   6.390124386  -0.002098138
C        3.689969308   7.101112545   0.001226882
C        6.149521341   0.000718883   0.000725418
C        4.920178912   0.711283925  -0.002098138
C        4.920057175   2.131608432  -0.009250225
C        6.149026760   2.840258600  -0.004851722
C        6.149172736   4.261226099  -0.004735187
C        4.920012940   4.969818542  -0.008999605
C        4.919977236   6.390117617  -0.001625042
C        6.149603427   7.100740101   0.000725766
C        4.051676439   2.201898835   3.013798498
C        2.702284727   2.563570274   3.011456854
C        2.340975487   3.912323035   3.011933716
C        3.328323561   4.899509476   3.013798498
C        4.677715273   4.537838037   3.011456854
C        5.039024513   3.189085276   3.011933716
H        4.332081278   1.154205896   3.000165882
H        1.935701126   1.796226809   3.000387725
H        1.293929098   4.193131143   3.000672516
H        3.047918722   5.947202415   3.000165882
H        5.444298874   5.305181502   3.000387725
H        6.086070902   2.908277168   3.000672516



     Writing output data file batch_graph+benzene.save/
     NEW-OLD atomic charge density approx. for the potential

     negative rho (up, down):  2.106E-04 0.000E+00

     total cpu time spent up to now is      503.5 secs

     Self-consistent Calculation

     iteration #  1     ecut=    32.00 Ry     beta= 0.50
     Davidson diagonalization with overlap
     ethr =  1.00E-06,  avg # of iterations =  3.0

     negative rho (up, down):  2.107E-04 0.000E+00

     total cpu time spent up to now is      546.9 secs

     total energy              =    -351.25846449 Ry
     Harris-Foulkes estimate   =    -351.25860770 Ry
     estimated scf accuracy    <       0.00032279 Ry

     iteration #  2     ecut=    32.00 Ry     beta= 0.50
     Davidson diagonalization with overlap
     ethr =  2.56E-07,  avg # of iterations =  2.0

     negative rho (up, down):  2.111E-04 0.000E+00

     total cpu time spent up to now is      577.6 secs

     total energy              =    -351.25852106 Ry
     Harris-Foulkes estimate   =    -351.25852944 Ry
     estimated scf accuracy    <       0.00003722 Ry

     iteration #  3     ecut=    32.00 Ry     beta= 0.50
     Davidson diagonalization with overlap
     ethr =  2.95E-08,  avg # of iterations =  2.0

     negative rho (up, down):  2.115E-04 0.000E+00

     total cpu time spent up to now is      607.2 secs

     total energy              =    -351.25852686 Ry
     Harris-Foulkes estimate   =    -351.25852729 Ry
     estimated scf accuracy    <       0.00000758 Ry

     iteration #  4     ecut=    32.00 Ry     beta= 0.50
     Davidson diagonalization with overlap
     ethr =  6.01E-09,  avg # of iterations =  2.0

     negative rho (up, down):  2.120E-04 0.000E+00

     total cpu time spent up to now is      636.7 secs

     total energy              =    -351.25852792 Ry
     Harris-Foulkes estimate   =    -351.25852805 Ry
     estimated scf accuracy    <       0.00000136 Ry

     iteration #  5     ecut=    32.00 Ry     beta= 0.50
     Davidson diagonalization with overlap
     ethr =  1.08E-09,  avg # of iterations =  2.2

     negative rho (up, down):  2.109E-04 0.000E+00

     total cpu time spent up to now is      665.4 secs

     End of self-consistent calculation

          k = 0.0000 0.0000 0.0000 ( 31971 PWs)   bands (ev):

   -21.9221 -20.4682 -20.4648 -19.9921 -19.9876 -19.5325 -18.5785 -18.5770
   -18.5768 -18.5704 -16.8395 -16.8147 -16.7126 -15.6444 -15.0732 -15.0686
   -15.0659 -15.0634 -13.2743 -13.2451 -13.0933 -13.0916 -13.0898 -13.0875
   -12.9539 -12.9467 -11.3558 -10.2820 -10.2776 -10.0155  -9.9259  -9.9243
    -9.7194  -9.3058  -9.0944  -9.0941  -9.0885  -9.0865  -8.9525  -8.9112
    -8.9073  -8.7605  -8.6711  -8.3930  -8.2289  -7.8244  -7.7083  -7.6000
    -7.5993  -7.0366  -6.7922  -6.7861  -6.2097  -6.2049  -6.1320  -6.0738
    -5.6302  -5.6186  -4.9018  -4.4880  -4.3487  -2.4016  -2.3816  -2.3652
    -2.3508  -0.7244  -0.0400   0.4353   0.5562   0.6958   1.3463   1.3542
     1.3590   1.3760   1.5851   1.9884

          k = 0.0000 0.0722 0.0000 ( 31929 PWs)   bands (ev):

   -21.8304 -21.0997 -19.9043 -19.8981 -19.6694 -19.5266 -19.1881 -19.1785
   -17.8117 -17.8094 -17.5973 -16.8147 -16.8116 -15.9414 -15.9379 -14.6540
   -14.5400 -14.5383 -13.6946 -13.6911 -13.2624 -13.2411 -12.4318 -12.4291
   -12.3690 -12.3653 -11.5588 -11.3477 -10.7408 -10.7368 -10.1331 -10.1327
    -9.9154  -9.7206  -9.3053  -9.1117  -8.8619  -8.6729  -8.6709  -8.6006
    -8.5937  -8.4273  -8.4247  -8.3490  -8.1634  -7.7799  -7.6159  -7.4294
    -7.0915  -6.9542  -6.9031  -6.7865  -6.7040  -6.6622  -5.9837  -5.8209
    -5.4252  -5.3649  -5.2835  -4.4867  -4.4281  -3.4006  -3.3610  -1.3947
    -1.3930  -0.1144   0.0987   0.3710   0.4567   0.5525   0.6045   0.8255
     1.3109   1.7920   1.8612   2.2046

          k = 0.0000-0.1443 0.0000 ( 31940 PWs)   bands (ev):

   -21.5597 -21.5515 -19.6677 -19.6350 -19.6342 -19.6258 -19.4949 -18.6921
   -18.6891 -16.9368 -16.9262 -16.9134 -16.9106 -16.8040 -16.7837 -14.1622
   -14.1612 -14.1578 -14.1510 -13.2703 -13.2417 -13.1600 -13.1518 -11.5582
   -11.5552 -11.5510 -11.5452 -11.3470 -11.3328 -11.3311 -11.3310 -11.3189
    -9.7229  -9.6211  -9.6011  -9.3045  -8.7003  -8.6676  -8.5994  -8.5863
    -8.2932  -8.2893  -8.2839  -8.2796  -7.6226  -7.3370  -7.3355  -7.3213
    -6.9819  -6.9581  -6.9244  -6.7600  -6.7388  -6.3562  -6.3223  -6.3078
    -6.2339  -4.7358  -4.6109  -4.4096  -4.3903  -4.3040  -4.1403  -0.5026
    -0.4647  -0.4443  -0.4376   0.3390   0.4094   0.5388   0.8847   1.1947
     1.2545   1.4235   1.5106   2.0674

          k = 0.0833 0.0000 0.0000 ( 31951 PWs)   bands (ev):

   -21.7998 -20.8278 -20.3488 -20.3450 -19.5515 -19.3938 -19.3762 -18.9238
   -17.5686 -17.5681 -16.8264 -16.8238 -16.6212 -16.2821 -15.7963 -15.5433
   -14.8920 -14.6339 -14.6325 -14.1413 -13.2479 -13.2437 -12.4159 -12.1740
   -11.7211 -11.5000 -11.4995 -11.3191 -10.1884  -9.9511  -9.9502  -9.8805
    -9.7262  -9.4613  -9.3062  -9.1663  -9.1656  -8.9900  -8.9898  -8.8805
    -8.7592  -8.7363  -8.6033  -8.2302  -8.1090  -8.0546  -8.0541  -7.6697
    -7.2860  -7.0818  -6.8783  -6.7529  -6.7329  -6.4590  -6.1032  -5.8791
    -5.2560  -5.2528  -4.8004  -4.5243  -4.3195  -3.6580  -3.3705  -1.4215
    -1.1044  -0.7536  -0.0300  -0.0208   0.1708   0.4962   0.5338   0.8694
     1.5249   1.7431   2.1388   2.2095

          k = 0.0833 0.0722 0.0000 ( 31951 PWs)   bands (ev):

   -21.7082 -20.9787 -20.7373 -20.0191 -19.5754 -19.5001 -18.8365 -18.6055
   -18.1478 -17.4873 -16.8931 -16.8213 -16.8107 -16.6108 -16.2463 -15.1502
   -14.6611 -14.5631 -14.0461 -13.9255 -13.2456 -13.2443 -12.2316 -12.2184
   -11.9991 -11.7860 -11.5230 -11.3126 -10.7364 -10.3513  -9.7797  -9.7412
    -9.7239  -9.6924  -9.3690  -9.3054  -9.1636  -8.9898  -8.8299  -8.7784
    -8.6725  -8.6483  -8.5147  -8.4828  -8.1665  -7.8158  -7.5294  -7.3501
    -7.3461  -6.9906  -6.7865  -6.7459  -6.4393  -6.3854  -6.1519  -6.0545
    -5.7567  -5.2093  -4.7087  -4.5251  -4.4589  -3.9639  -3.7791  -1.0726
    -0.7393  -0.5592  -0.1277   0.2769   0.4851   0.5519   0.6875   0.9980
     1.4414   1.5813   1.6766   1.9317

          k = 0.0833-0.1443 0.0000 ( 31876 PWs)   bands (ev):

   -21.4379 -21.4297 -20.4699 -20.4632 -19.5371 -18.5822 -18.5775 -18.5741
   -18.5695 -17.6719 -17.6681 -16.8242 -16.8109 -16.3207 -16.3143 -15.2620
   -15.2597 -13.2528 -13.2497 -13.0979 -13.0895 -13.0845 -13.0825 -13.0163
   -13.0134 -11.4022 -11.3942 -11.3058 -10.7113 -10.7079  -9.9320  -9.9270
    -9.7279  -9.4917  -9.4583  -9.3059  -9.0999  -9.0933  -9.0889  -9.0863
    -8.7804  -8.7064  -8.3086  -8.2659  -7.5999  -7.5891  -7.2794  -7.2642
    -7.1175  -6.7885  -6.7710  -6.6174  -6.6118  -6.2269  -6.1597  -6.1456
    -6.1102  -5.2180  -5.1319  -4.5109  -4.3959  -4.1299  -4.1296  -0.9115
    -0.9093   0.3949   0.4095   0.4751   0.4917   0.5222   1.0645   1.3390
     1.3592   1.3794   1.3852   1.4025

          k =-0.1667 0.0000 0.0000 ( 31854 PWs)   bands (ev):

   -21.4357 -21.4319 -19.9985 -19.9910 -19.9875 -19.9821 -19.5220 -17.6722
   -17.6677 -16.8327 -16.8214 -16.7378 -16.7360 -16.3252 -16.3064 -15.6477
   -15.6451 -15.2579 -15.2568 -13.2557 -13.2299 -13.0188 -13.0119 -11.3969
   -11.3947 -11.2789 -10.7196 -10.7063 -10.2789 -10.2758 -10.2736 -10.2695
    -9.7368  -9.4837  -9.4732  -9.3067  -8.9496  -8.9489  -8.9204  -8.9177
    -8.9144  -8.9083  -8.7569  -8.7198  -7.9412  -7.7285  -7.7186  -7.7123
    -7.2888  -7.2686  -6.9288  -6.7572  -6.7329  -6.6073  -6.6071  -5.2382
    -5.1050  -4.7478  -4.7359  -4.7038  -4.4767  -4.1569  -3.9495  -0.9369
    -0.9077  -0.6635  -0.6465   0.2276   0.4443   0.5195   0.5787   0.7063
     0.8738   1.3670   1.4094   2.1957

          k =-0.1667 0.0722 0.0000 ( 31908 PWs)   bands (ev):

   -21.3445 -21.3407 -20.6182 -20.6156 -19.5397 -19.1912 -19.1782 -17.5902
   -17.5856 -17.1614 -17.1601 -16.9972 -16.9891 -16.8227 -16.8024 -15.2467
   -15.2458 -14.3127 -14.3093 -13.5739 -13.5696 -13.2449 -13.2276 -11.5198
   -11.5192 -11.2750 -10.8267 -10.8259 -10.6163 -10.6030  -9.7587  -9.7393
    -9.7275  -9.3880  -9.3694  -9.3073  -9.2633  -9.2535  -9.2184  -9.2182
    -8.7870  -8.7795  -8.4566  -8.4201  -7.9106  -7.9049  -7.6491  -7.6328
    -7.1970  -6.8653  -6.7934  -6.7058  -6.6514  -6.6428  -6.6372  -5.1938
    -5.0623  -4.9343  -4.8395  -4.7978  -4.7156  -4.4330  -4.2605  -0.5110
    -0.5038  -0.2932  -0.2552   0.1350   0.2680   0.5613   0.6097   0.6718
     0.9889   1.4961   1.5225   1.6949

          k =-0.1667-0.1443 0.0000 ( 31784 PWs)   bands (ev):

   -21.0768 -21.0701 -21.0656 -21.0655 -19.5352 -18.2390 -18.2338 -18.2313
   -18.2287 -17.3565 -17.3529 -17.3500 -17.3360 -16.8246 -16.8099 -14.4642
   -14.4569 -14.4566 -14.4481 -13.2489 -13.2297 -12.9222 -12.9213 -12.9169
   -12.9168 -11.2688 -10.3063 -10.2962 -10.2938 -10.2821  -9.9395  -9.9359
    -9.9180  -9.9128  -9.7378  -9.3070  -9.1348  -9.1227  -9.0785  -8.9931
    -8.6633  -8.6283  -8.3880  -8.3870  -8.3755  -8.3742  -7.0983  -7.0662
    -7.0596  -7.0522  -7.0521  -6.7726  -6.7500  -5.8991  -5.7754  -5.7455
    -5.7010  -5.1091  -4.9587  -4.9469  -4.9156  -4.4136  -4.3898  -0.2258
    -0.1557  -0.1069  -0.1022   0.4996   0.5399   0.7760   1.0374   1.0709
     1.0730   1.1396   1.1773   1.3971

          k =-0.0833 0.0722 0.0000 ( 31951 PWs)   bands (ev):

   -21.7082 -20.9787 -20.7373 -20.0191 -19.5753 -19.5003 -18.8365 -18.6055
   -18.1478 -17.4872 -16.8919 -16.8213 -16.8119 -16.6109 -16.2465 -15.1501
   -14.6609 -14.5629 -14.0463 -13.9254 -13.2457 -13.2448 -12.2313 -12.2181
   -11.9991 -11.7860 -11.5227 -11.3128 -10.7365 -10.3515  -9.7798  -9.7418
    -9.7202  -9.6940  -9.3699  -9.3051  -9.1634  -8.9900  -8.8293  -8.7783
    -8.6721  -8.6491  -8.5179  -8.4822  -8.1663  -7.8215  -7.5292  -7.3488
    -7.3396  -6.9792  -6.7785  -6.7546  -6.4393  -6.3995  -6.1526  -6.0544
    -5.7582  -5.2053  -4.7022  -4.5271  -4.4604  -3.9662  -3.7810  -1.0684
    -0.7412  -0.5559  -0.1218   0.2852   0.4791   0.5425   0.6801   0.9985
     1.4560   1.6246   1.6690   1.9198

     the Fermi energy is    -2.3748 ev

!    total energy              =    -351.25852808 Ry
     Harris-Foulkes estimate   =    -351.25852825 Ry
     estimated scf accuracy    <       0.00000030 Ry

     The total energy is the sum of the following terms:

     one-electron contribution =   -4809.89094007 Ry
     hartree contribution      =    2424.89969035 Ry
     xc contribution           =    -112.32253089 Ry
     ewald contribution        =    2146.05805992 Ry
     smearing contrib. (-TS)   =      -0.00280738 Ry

     convergence has been achieved in   5 iterations

     Forces acting on atoms (cartesian axes, Ry/au):

     atom    1 type  1   force =     0.00007115   -0.00056208    0.00072081
     atom    2 type  1   force =     0.00004149    0.00132862    0.00207907
     atom    3 type  1   force =    -0.00011419    0.00018783   -0.00044441
     atom    4 type  1   force =    -0.00053580    0.00149771   -0.00400446
     atom    5 type  1   force =    -0.00101654   -0.00137012   -0.00408830
     atom    6 type  1   force =     0.00011419   -0.00018783   -0.00044441
     atom    7 type  1   force =    -0.00004149   -0.00132862    0.00207907
     atom    8 type  1   force =    -0.00027645    0.00054442    0.00059731
     atom    9 type  1   force =     0.00012526    0.00072876    0.00133363
     atom   10 type  1   force =     0.00037664   -0.00013024   -0.00183939
     atom   11 type  1   force =     0.00075651   -0.00038508   -0.00622333
     atom   12 type  1   force =    -0.00007397   -0.00100262   -0.00907850
     atom   13 type  1   force =     0.00007397    0.00100262   -0.00907850
     atom   14 type  1   force =     0.00067410    0.00036425   -0.00639296
     atom   15 type  1   force =     0.00053647    0.00009593   -0.00202644
     atom   16 type  1   force =    -0.00012526   -0.00072876    0.00133363
     atom   17 type  1   force =     0.00027645   -0.00054442    0.00059731
     atom   18 type  1   force =    -0.00053647   -0.00009593   -0.00202644
     atom   19 type  1   force =    -0.00067410   -0.00036425   -0.00639296
     atom   20 type  1   force =     0.00101654    0.00137012   -0.00408830
     atom   21 type  1   force =     0.00053580   -0.00149771   -0.00400446
     atom   22 type  1   force =    -0.00075651    0.00038508   -0.00622333
     atom   23 type  1   force =    -0.00037664    0.00013024   -0.00183939
     atom   24 type  1   force =    -0.00007115    0.00056208    0.00072081
     atom   25 type  1   force =    -0.00239117    0.00647112    0.00920893
     atom   26 type  1   force =     0.00499693    0.00426309    0.00882664
     atom   27 type  1   force =     0.00642012   -0.00164784    0.00897916
     atom   28 type  1   force =     0.00239117   -0.00647112    0.00920893
     atom   29 type  1   force =    -0.00499693   -0.00426309    0.00882664
     atom   30 type  1   force =    -0.00642012    0.00164784    0.00897916
     atom   31 type  2   force =     0.00052844   -0.00215594    0.00081876
     atom   32 type  2   force =    -0.00160656   -0.00169707    0.00063001
     atom   33 type  2   force =    -0.00254010    0.00101092    0.00090346
     atom   34 type  2   force =    -0.00052844    0.00215594    0.00081876
     atom   35 type  2   force =     0.00160656    0.00169707    0.00063001
     atom   36 type  2   force =     0.00254010   -0.00101092    0.00090346

     Total force =     0.035170     Total SCF correction =     0.001428

     number of scf cycles    =   3
     number of bfgs steps    =   2

     energy   old            =    -351.2572269218 Ry
     energy   new            =    -351.2585280761 Ry

     CASE: energy  _new < energy  _old

     new trust radius        =       0.0209558442 bohr
     new conv_thr            =       0.0000009209 Ry


ATOMIC_POSITIONS (angstrom)
C        1.230539928   0.000839857   0.001442965
C        0.000145250   0.711032541   0.003381896
C        0.000200964   2.132283252   0.000299073
C        1.231042539   2.840439069  -0.008984875
C        1.231087470   4.260912890  -0.009199855
C       -0.000200964   4.969125059   0.000299073
C       -0.000145250   6.390375770   0.003381896
C        1.230538547   7.100478489   0.001378629
C        3.690092083   0.000723257   0.002405811
C        2.460237551   0.711769683  -0.003315474
C        2.460197081   2.132010344  -0.016340812
C        3.690061875   2.841605332  -0.021407302
C        3.689938125   4.259802979  -0.021407302
C        2.460094416   4.969361670  -0.016790545
C        2.459959184   6.389628396  -0.004100851
C        3.689907917   7.100685054   0.002405811
C        6.149461453   0.000929822   0.001378629
C        4.920040816   0.711779915  -0.004100851
C        4.919905584   2.132046641  -0.016790545
C        6.148912530   2.840495421  -0.009199855
C        6.148957461   4.260969242  -0.008984875
C        4.919802919   4.969397967  -0.016340812
C        4.919762449   6.389638628  -0.003315474
C        6.149460072   7.100568454   0.001442965
C        4.051420575   2.202719430   3.024854490
C        2.702661907   2.564177939   3.021268866
C        2.341753177   3.912144838   3.022038092
C        3.328579425   4.898688881   3.024854490
C        4.677338093   4.537230372   3.021268866
C        5.038246823   3.189263473   3.022038092
H        4.331532218   1.156019905   3.000689948
H        1.936930621   1.797288442   3.000911455
H        1.295559312   4.193069916   3.001468491
H        3.048467782   5.945388406   3.000689948
H        5.443069379   5.304119869   3.000911455
H        6.084440688   2.908338395   3.001468491



     Writing output data file batch_graph+benzene.save/
     NEW-OLD atomic charge density approx. for the potential

     negative rho (up, down):  2.109E-04 0.000E+00

     total cpu time spent up to now is      680.3 secs

     Self-consistent Calculation

     iteration #  1     ecut=    32.00 Ry     beta= 0.50
     Davidson diagonalization with overlap
     ethr =  1.00E-06,  avg # of iterations =  4.0

     negative rho (up, down):  2.109E-04 0.000E+00

     total cpu time spent up to now is      730.3 secs

     total energy              =    -351.26018591 Ry
     Harris-Foulkes estimate   =    -351.26052791 Ry
     estimated scf accuracy    <       0.00076603 Ry

     iteration #  2     ecut=    32.00 Ry     beta= 0.50
     Davidson diagonalization with overlap
     ethr =  6.08E-07,  avg # of iterations =  2.0

     negative rho (up, down):  2.119E-04 0.000E+00

     total cpu time spent up to now is      760.6 secs

     total energy              =    -351.26031791 Ry
     Harris-Foulkes estimate   =    -351.26034246 Ry
     estimated scf accuracy    <       0.00009594 Ry

     iteration #  3     ecut=    32.00 Ry     beta= 0.50
     Davidson diagonalization with overlap
     ethr =  7.61E-08,  avg # of iterations =  2.0

     negative rho (up, down):  2.112E-04 0.000E+00

     total cpu time spent up to now is      790.8 secs

     total energy              =    -351.26033265 Ry
     Harris-Foulkes estimate   =    -351.26033654 Ry
     estimated scf accuracy    <       0.00002294 Ry

     iteration #  4     ecut=    32.00 Ry     beta= 0.50
     Davidson diagonalization with overlap
     ethr =  1.82E-08,  avg # of iterations =  2.2

     negative rho (up, down):  2.125E-04 0.000E+00

     total cpu time spent up to now is      819.8 secs

     total energy              =    -351.26033622 Ry
     Harris-Foulkes estimate   =    -351.26033761 Ry
     estimated scf accuracy    <       0.00000648 Ry

     iteration #  5     ecut=    32.00 Ry     beta= 0.50
     Davidson diagonalization with overlap
     ethr =  5.14E-09,  avg # of iterations =  2.2

     negative rho (up, down):  2.110E-04 0.000E+00

     total cpu time spent up to now is      848.1 secs

     End of self-consistent calculation

          k = 0.0000 0.0000 0.0000 ( 31971 PWs)   bands (ev):

   -21.9269 -20.4722 -20.4703 -19.9965 -19.9924 -19.5419 -18.5834 -18.5829
   -18.5820 -18.5744 -16.8421 -16.8200 -16.7196 -15.6493 -15.0780 -15.0729
   -15.0715 -15.0691 -13.2763 -13.2485 -13.0996 -13.0955 -13.0955 -13.0928
   -12.9589 -12.9524 -11.3626 -10.2869 -10.2834 -10.0182  -9.9315  -9.9283
    -9.7189  -9.3100  -9.0995  -9.0987  -9.0934  -9.0930  -8.9578  -8.9156
    -8.9127  -8.7638  -8.6748  -8.3912  -8.2315  -7.8266  -7.7111  -7.6058
    -7.6043  -7.0532  -6.7913  -6.7865  -6.2115  -6.2074  -6.1360  -6.0824
    -5.6358  -5.6237  -4.9000  -4.4964  -4.3629  -2.4045  -2.3856  -2.3708
    -2.3586  -0.7262  -0.0374   0.4375   0.5567   0.6927   1.3414   1.3486
     1.3535   1.3694   1.5847   1.9908

          k = 0.0000 0.0722 0.0000 ( 31929 PWs)   bands (ev):

   -21.8351 -21.1045 -19.9086 -19.9029 -19.6737 -19.5361 -19.1930 -19.1842
   -17.8166 -17.8143 -17.6020 -16.8201 -16.8163 -15.9465 -15.9431 -14.6590
   -14.5448 -14.5437 -13.6994 -13.6964 -13.2651 -13.2448 -12.4368 -12.4343
   -12.3739 -12.3709 -11.5639 -11.3546 -10.7457 -10.7425 -10.1384 -10.1377
    -9.9175  -9.7200  -9.3095  -9.1139  -8.8672  -8.6751  -8.6737  -8.6053
    -8.5996  -8.4321  -8.4303  -8.3542  -8.1689  -7.7787  -7.6187  -7.4329
    -7.1000  -6.9596  -6.9058  -6.7865  -6.7056  -6.6758  -5.9888  -5.8266
    -5.4235  -5.3677  -5.2889  -4.4951  -4.4395  -3.4047  -3.3684  -1.3993
    -1.3982  -0.1135   0.1014   0.3699   0.4513   0.5526   0.5986   0.8224
     1.3136   1.7912   1.8593   2.2038

          k = 0.0000-0.1443 0.0000 ( 31940 PWs)   bands (ev):

   -21.5633 -21.5574 -19.6716 -19.6385 -19.6377 -19.6320 -19.5061 -18.6983
   -18.6929 -16.9388 -16.9313 -16.9192 -16.9146 -16.8102 -16.7905 -14.1659
   -14.1644 -14.1641 -14.1582 -13.2724 -13.2455 -13.1633 -13.1591 -11.5633
   -11.5610 -11.5556 -11.5506 -11.3531 -11.3376 -11.3362 -11.3350 -11.3265
    -9.7223  -9.6215  -9.6047  -9.3088  -8.7022  -8.6707  -8.6022  -8.5947
    -8.2978  -8.2950  -8.2887  -8.2855  -7.6211  -7.3393  -7.3389  -7.3246
    -6.9885  -6.9610  -6.9378  -6.7641  -6.7403  -6.3556  -6.3272  -6.3141
    -6.2424  -4.7334  -4.6144  -4.4124  -4.3961  -4.3130  -4.1568  -0.5061
    -0.4685  -0.4494  -0.4438   0.3402   0.4139   0.5396   0.8867   1.1914
     1.2554   1.4176   1.5027   2.0666

          k = 0.0833 0.0000 0.0000 ( 31951 PWs)   bands (ev):

   -21.8045 -20.8325 -20.3527 -20.3504 -19.5590 -19.3994 -19.3823 -18.9288
   -17.5741 -17.5723 -16.8302 -16.8286 -16.6274 -16.2873 -15.8016 -15.5482
   -14.8969 -14.6395 -14.6372 -14.1464 -13.2507 -13.2475 -12.4209 -12.1792
   -11.7264 -11.5054 -11.5044 -11.3262 -10.1934  -9.9568  -9.9553  -9.8820
    -9.7255  -9.4665  -9.3104  -9.1715  -9.1709  -8.9958  -8.9944  -8.8831
    -8.7644  -8.7397  -8.6045  -8.2304  -8.1119  -8.0605  -8.0592  -7.6749
    -7.2909  -7.0854  -6.8884  -6.7547  -6.7343  -6.4660  -6.1088  -5.8842
    -5.2589  -5.2558  -4.7983  -4.5314  -4.3324  -3.6640  -3.3782  -1.4261
    -1.1083  -0.7562  -0.0345  -0.0261   0.1723   0.4969   0.5337   0.8664
     1.5269   1.7436   2.1366   2.2081

          k = 0.0833 0.0722 0.0000 ( 31951 PWs)   bands (ev):

   -21.7129 -20.9835 -20.7420 -20.0237 -19.5808 -19.5089 -18.8415 -18.6105
   -18.1528 -17.4921 -16.8972 -16.8266 -16.8155 -16.6166 -16.2514 -15.1553
   -14.6663 -14.5681 -14.0511 -13.9306 -13.2486 -13.2479 -12.2369 -12.2235
   -12.0043 -11.7910 -11.5280 -11.3197 -10.7416 -10.3565  -9.7819  -9.7446
    -9.7251  -9.6972  -9.3742  -9.3096  -9.1691  -8.9921  -8.8321  -8.7836
    -8.6740  -8.6538  -8.5173  -8.4881  -8.1717  -7.8173  -7.5345  -7.3550
    -7.3494  -7.0056  -6.7873  -6.7459  -6.4448  -6.3899  -6.1556  -6.0598
    -5.7607  -5.2094  -4.7116  -4.5315  -4.4678  -3.9745  -3.7849  -1.0769
    -0.7441  -0.5647  -0.1284   0.2789   0.4872   0.5514   0.6797   0.9949
     1.4439   1.5829   1.6731   1.9261

          k = 0.0833-0.1443 0.0000 ( 31876 PWs)   bands (ev):

   -21.4415 -21.4356 -20.4735 -20.4690 -19.5461 -18.5856 -18.5837 -18.5779
   -18.5759 -17.6778 -17.6719 -16.8293 -16.8157 -16.3246 -16.3206 -15.2684
   -15.2636 -13.2556 -13.2524 -13.1034 -13.0933 -13.0912 -13.0878 -13.0203
   -13.0198 -11.4055 -11.4013 -11.3128 -10.7152 -10.7143  -9.9373  -9.9322
    -9.7274  -9.4920  -9.4620  -9.3101  -9.1029  -9.0979  -9.0967  -9.0921
    -8.7832  -8.7085  -8.3091  -8.2692  -7.6056  -7.5938  -7.2858  -7.2683
    -7.1321  -6.7874  -6.7715  -6.6221  -6.6182  -6.2257  -6.1638  -6.1497
    -6.1182  -5.2165  -5.1372  -4.5187  -4.4082  -4.1360  -4.1355  -0.9179
    -0.9134   0.3953   0.4089   0.4745   0.4916   0.5223   1.0655   1.3340
     1.3521   1.3747   1.3799   1.4002

          k =-0.1667 0.0000 0.0000 ( 31854 PWs)   bands (ev):

   -21.4399 -21.4372 -20.0020 -19.9955 -19.9915 -19.9886 -19.5321 -17.6772
   -17.6724 -16.8378 -16.8250 -16.7435 -16.7404 -16.3290 -16.3137 -15.6533
   -15.6501 -15.2634 -15.2610 -13.2588 -13.2328 -13.0240 -13.0179 -11.4013
   -11.4000 -11.2863 -10.7246 -10.7117 -10.2823 -10.2819 -10.2792 -10.2753
    -9.7360  -9.4837  -9.4770  -9.3108  -8.9550  -8.9534  -8.9257  -8.9227
    -8.9190  -8.9149  -8.7596  -8.7227  -7.9379  -7.7330  -7.7209  -7.7156
    -7.2929  -7.2755  -6.9507  -6.7580  -6.7322  -6.6135  -6.6111  -5.2376
    -5.1094  -4.7524  -4.7403  -4.7005  -4.4868  -4.1601  -3.9663  -0.9384
    -0.9142  -0.6697  -0.6533   0.2355   0.4388   0.5220   0.5800   0.6941
     0.8756   1.3640   1.4070   2.1966

          k =-0.1667 0.0722 0.0000 ( 31908 PWs)   bands (ev):

   -21.3486 -21.3460 -20.6224 -20.6208 -19.5484 -19.1954 -19.1844 -17.5952
   -17.5903 -17.1664 -17.1643 -17.0021 -16.9936 -16.8286 -16.8079 -15.2520
   -15.2508 -14.3178 -14.3142 -13.5787 -13.5747 -13.2491 -13.2306 -11.5252
   -11.5239 -11.2823 -10.8321 -10.8307 -10.6214 -10.6085  -9.7617  -9.7442
    -9.7294  -9.3879  -9.3736  -9.3113  -9.2676  -9.2594  -9.2241  -9.2231
    -8.7891  -8.7824  -8.4566  -8.4239  -7.9155  -7.9107  -7.6533  -7.6394
    -7.2056  -6.8679  -6.7984  -6.7076  -6.6574  -6.6491  -6.6415  -5.1929
    -5.0664  -4.9310  -4.8432  -4.8022  -4.7194  -4.4444  -4.2781  -0.5167
    -0.5095  -0.2944  -0.2613   0.1392   0.2626   0.5623   0.6025   0.6707
     0.9909   1.4925   1.5199   1.6989

          k =-0.1667-0.1443 0.0000 ( 31784 PWs)   bands (ev):

   -21.0795 -21.0746 -21.0715 -21.0714 -19.5442 -18.2442 -18.2382 -18.2370
   -18.2330 -17.3592 -17.3586 -17.3543 -17.3427 -16.8304 -16.8147 -14.4697
   -14.4630 -14.4605 -14.4530 -13.2527 -13.2324 -12.9283 -12.9258 -12.9234
   -12.9203 -11.2760 -10.3088 -10.3038 -10.2973 -10.2896  -9.9439  -9.9430
    -9.9220  -9.9178  -9.7372  -9.3112  -9.1313  -9.1270  -9.0827  -8.9963
    -8.6659  -8.6301  -8.3917  -8.3917  -8.3817  -8.3810  -7.1138  -7.0715
    -7.0667  -7.0576  -7.0567  -6.7728  -6.7493  -5.8944  -5.7791  -5.7486
    -5.7095  -5.1077  -4.9622  -4.9514  -4.9209  -4.4259  -4.4039  -0.2226
    -0.1634  -0.1144  -0.1056   0.5044   0.5346   0.7769   1.0328   1.0655
     1.0663   1.1343   1.1801   1.4001

          k =-0.0833 0.0722 0.0000 ( 31951 PWs)   bands (ev):

   -21.7129 -20.9835 -20.7420 -20.0237 -19.5806 -19.5091 -18.8415 -18.6105
   -18.1528 -17.4920 -16.8961 -16.8266 -16.8166 -16.6167 -16.2516 -15.1553
   -14.6660 -14.5679 -14.0513 -13.9305 -13.2487 -13.2483 -12.2366 -12.2232
   -12.0044 -11.7911 -11.5278 -11.3198 -10.7418 -10.3567  -9.7820  -9.7452
    -9.7215  -9.6987  -9.3750  -9.3094  -9.1688  -8.9924  -8.8316  -8.7835
    -8.6736  -8.6544  -8.5205  -8.4877  -8.1714  -7.8229  -7.5344  -7.3543
    -7.3426  -6.9949  -6.7772  -6.7556  -6.4450  -6.4041  -6.1565  -6.0597
    -5.7622  -5.2055  -4.7054  -4.5336  -4.4689  -3.9768  -3.7867  -1.0729
    -0.7459  -0.5616  -0.1229   0.2872   0.4818   0.5424   0.6724   0.9955
     1.4582   1.6267   1.6646   1.9145

     the Fermi energy is    -2.3799 ev

!    total energy              =    -351.26033732 Ry
     Harris-Foulkes estimate   =    -351.26033768 Ry
     estimated scf accuracy    <       0.00000084 Ry

     The total energy is the sum of the following terms:

     one-electron contribution =   -4804.69143209 Ry
     hartree contribution      =    2422.27932135 Ry
     xc contribution           =    -112.32648366 Ry
     ewald contribution        =    2143.48106692 Ry
     smearing contrib. (-TS)   =      -0.00280984 Ry

     convergence has been achieved in   5 iterations

     Forces acting on atoms (cartesian axes, Ry/au):

     atom    1 type  1   force =    -0.00015615   -0.00059789    0.00095725
     atom    2 type  1   force =    -0.00005149    0.00037402    0.00113274
     atom    3 type  1   force =    -0.00010393   -0.00019748   -0.00127851
     atom    4 type  1   force =    -0.00081492    0.00122041   -0.00377533
     atom    5 type  1   force =    -0.00112526   -0.00113048   -0.00384966
     atom    6 type  1   force =     0.00010393    0.00019748   -0.00127851
     atom    7 type  1   force =     0.00005149   -0.00037402    0.00113274
     atom    8 type  1   force =    -0.00046203    0.00061368    0.00078793
     atom    9 type  1   force =     0.00005565   -0.00006808    0.00047343
     atom   10 type  1   force =     0.00013634   -0.00069571   -0.00178840
     atom   11 type  1   force =     0.00054075   -0.00095514   -0.00495968
     atom   12 type  1   force =    -0.00003760   -0.00052113   -0.00832413
     atom   13 type  1   force =     0.00003760    0.00052113   -0.00832413
     atom   14 type  1   force =     0.00046790    0.00095521   -0.00508064
     atom   15 type  1   force =     0.00027250    0.00065269   -0.00184474
     atom   16 type  1   force =    -0.00005565    0.00006808    0.00047343
     atom   17 type  1   force =     0.00046203   -0.00061368    0.00078793
     atom   18 type  1   force =    -0.00027250   -0.00065269   -0.00184474
     atom   19 type  1   force =    -0.00046790   -0.00095521   -0.00508064
     atom   20 type  1   force =     0.00112526    0.00113048   -0.00384966
     atom   21 type  1   force =     0.00081492   -0.00122041   -0.00377533
     atom   22 type  1   force =    -0.00054075    0.00095514   -0.00495968
     atom   23 type  1   force =    -0.00013634    0.00069571   -0.00178840
     atom   24 type  1   force =     0.00015615    0.00059789    0.00095725
     atom   25 type  1   force =    -0.00250739    0.00605592    0.00743522
     atom   26 type  1   force =     0.00492683    0.00378910    0.00802157
     atom   27 type  1   force =     0.00572097   -0.00143912    0.00799583
     atom   28 type  1   force =     0.00250739   -0.00605592    0.00743522
     atom   29 type  1   force =    -0.00492683   -0.00378910    0.00802157
     atom   30 type  1   force =    -0.00572097    0.00143912    0.00799583
     atom   31 type  2   force =     0.00082784   -0.00327222    0.00154365
     atom   32 type  2   force =    -0.00239676   -0.00240477    0.00113555
     atom   33 type  2   force =    -0.00344414    0.00121059    0.00141794
     atom   34 type  2   force =    -0.00082784    0.00327222    0.00154365
     atom   35 type  2   force =     0.00239676    0.00240477    0.00113555
     atom   36 type  2   force =     0.00344414   -0.00121059    0.00141794

     Total force =     0.031982     Total SCF correction =     0.002539

     number of scf cycles    =   4
     number of bfgs steps    =   3

     energy   old            =    -351.2585280761 Ry
     energy   new            =    -351.2603373213 Ry

     CASE: energy  _new < energy  _old

     new trust radius        =       0.0314337663 bohr
     new conv_thr            =       0.0000008324 Ry


ATOMIC_POSITIONS (angstrom)
C        1.230582987   0.001065782   0.002826284
C        0.000153901   0.711397558   0.005383928
C        0.000237361   2.132858412  -0.000631515
C        1.231131089   2.840667209  -0.015756369
C        1.231146832   4.260686990  -0.016124277
C       -0.000237361   4.968549899  -0.000631515
C       -0.000153901   6.390010753   0.005383928
C        1.230472088   7.100218335   0.002616073
C        3.690134387   0.000738904   0.003596536
C        2.460380413   0.712051486  -0.006047954
C        2.460377059   2.132183254  -0.027271673
C        3.690106224   2.841933841  -0.036821021
C        3.689893776   4.259474470  -0.036821021
C        2.460186120   4.969177917  -0.028005620
C        2.459965006   6.389311097  -0.007230107
C        3.689865613   7.100669407   0.003596536
C        6.149527912   0.001189976   0.002616073
C        4.920034994   0.712097214  -0.007230107
C        4.919813880   2.132230394  -0.028005620
C        6.148853168   2.840721321  -0.016124277
C        6.148868911   4.260741102  -0.015756369
C        4.919622941   4.969225057  -0.027271673
C        4.919619587   6.389356825  -0.006047954
C        6.149417013   7.100342529   0.002826284
C        4.050804463   2.203957803   3.041430916
C        2.703423563   2.564925251   3.036659148
C        2.342653586   3.911974537   3.037751017
C        3.329195537   4.897450508   3.041430916
C        4.676576437   4.536483060   3.036659148
C        5.037346414   3.189433774   3.037751017
H        4.330931695   1.157880812   3.002186265
H        1.938157040   1.798314097   3.002213308
H        1.297305805   4.193180331   3.003225061
H        3.049068305   5.943527499   3.002186265
H        5.441842960   5.303094214   3.002213308
H        6.082694195   2.908227980   3.003225061



     Writing output data file batch_graph+benzene.save/
     NEW-OLD atomic charge density approx. for the potential

     negative rho (up, down):  2.122E-04 0.000E+00

     total cpu time spent up to now is      863.0 secs

     Self-consistent Calculation

     iteration #  1     ecut=    32.00 Ry     beta= 0.50
     Davidson diagonalization with overlap
     ethr =  1.00E-06,  avg # of iterations =  4.2

     negative rho (up, down):  2.116E-04 0.000E+00

     total cpu time spent up to now is      919.5 secs

     total energy              =    -351.26231869 Ry
     Harris-Foulkes estimate   =    -351.26313353 Ry
     estimated scf accuracy    <       0.00182317 Ry

     iteration #  2     ecut=    32.00 Ry     beta= 0.50
     Davidson diagonalization with overlap
     ethr =  1.45E-06,  avg # of iterations =  3.1

     negative rho (up, down):  2.135E-04 0.000E+00

     total cpu time spent up to now is      950.7 secs

     total energy              =    -351.26263585 Ry
     Harris-Foulkes estimate   =    -351.26268770 Ry
     estimated scf accuracy    <       0.00021756 Ry

     iteration #  3     ecut=    32.00 Ry     beta= 0.50
     Davidson diagonalization with overlap
     ethr =  1.73E-07,  avg # of iterations =  2.0

     negative rho (up, down):  2.155E-04 0.000E+00

     total cpu time spent up to now is      980.0 secs

     total energy              =    -351.26267080 Ry
     Harris-Foulkes estimate   =    -351.26267195 Ry
     estimated scf accuracy    <       0.00004109 Ry

     iteration #  4     ecut=    32.00 Ry     beta= 0.50
     Davidson diagonalization with overlap
     ethr =  3.26E-08,  avg # of iterations =  2.0

     negative rho (up, down):  2.197E-04 0.000E+00

     total cpu time spent up to now is     1008.9 secs

     total energy              =    -351.26267672 Ry
     Harris-Foulkes estimate   =    -351.26267587 Ry
     estimated scf accuracy    <       0.00000456 Ry

     iteration #  5     ecut=    32.00 Ry     beta= 0.50
     Davidson diagonalization with overlap
     ethr =  3.62E-09,  avg # of iterations =  2.1

     negative rho (up, down):  2.114E-04 0.000E+00

     total cpu time spent up to now is     1037.1 secs

     End of self-consistent calculation

          k = 0.0000 0.0000 0.0000 ( 31971 PWs)   bands (ev):

   -21.9338 -20.4792 -20.4770 -20.0031 -19.9993 -19.5547 -18.5904 -18.5895
   -18.5888 -18.5831 -16.8451 -16.8243 -16.7296 -15.6569 -15.0849 -15.0807
   -15.0793 -15.0767 -13.2767 -13.2488 -13.1064 -13.1033 -13.1033 -13.1005
   -12.9662 -12.9603 -11.3673 -10.2941 -10.2907 -10.0227  -9.9391  -9.9356
    -9.7108  -9.3157  -9.1069  -9.1064  -9.1020  -9.1006  -8.9651  -8.9240
    -8.9211  -8.7651  -8.6768  -8.3891  -8.2342  -7.8298  -7.7152  -7.6128
    -7.6118  -7.0776  -6.7908  -6.7812  -6.2138  -6.2095  -6.1419  -6.0966
    -5.6428  -5.6325  -4.8965  -4.5066  -4.3843  -2.4089  -2.3927  -2.3786
    -2.3689  -0.7301  -0.0343   0.4403   0.5580   0.6872   1.3311   1.3402
     1.3476   1.3608   1.5841   1.9943

          k = 0.0000 0.0722 0.0000 ( 31929 PWs)   bands (ev):

   -21.8420 -21.1114 -19.9149 -19.9097 -19.6800 -19.5490 -19.1999 -19.1925
   -17.8235 -17.8217 -17.6091 -16.8243 -16.8222 -15.9537 -15.9510 -14.6666
   -14.5523 -14.5510 -13.7066 -13.7038 -13.2667 -13.2451 -12.4441 -12.4420
   -12.3813 -12.3785 -11.5718 -11.3595 -10.7530 -10.7500 -10.1459 -10.1457
    -9.9205  -9.7118  -9.3152  -9.1165  -8.8745  -8.6766  -8.6731  -8.6133
    -8.6079  -8.4403  -8.4383  -8.3628  -8.1764  -7.7769  -7.6224  -7.4377
    -7.1129  -6.9669  -6.9076  -6.7889  -6.7055  -6.6917  -5.9974  -5.8339
    -5.4216  -5.3713  -5.2962  -4.5053  -4.4568  -3.4106  -3.3792  -1.4065
    -1.4056  -0.1136   0.1048   0.3683   0.4435   0.5541   0.5886   0.8168
     1.3170   1.7886   1.8555   2.2010

          k = 0.0000-0.1443 0.0000 ( 31940 PWs)   bands (ev):

   -21.5682 -21.5663 -19.6775 -19.6431 -19.6428 -19.6411 -19.5217 -18.7068
   -18.6990 -16.9424 -16.9380 -16.9277 -16.9205 -16.8158 -16.7996 -14.1738
   -14.1705 -14.1697 -14.1680 -13.2737 -13.2456 -13.1694 -13.1692 -11.5709
   -11.5688 -11.5626 -11.5578 -11.3581 -11.3468 -11.3421 -11.3411 -11.3358
    -9.7142  -9.6226  -9.6093  -9.3145  -8.7017  -8.6719  -8.6067  -8.6052
    -8.3044  -8.3018  -8.2983  -8.2948  -7.6191  -7.3437  -7.3421  -7.3292
    -6.9957  -6.9702  -6.9590  -6.7706  -6.7348  -6.3553  -6.3338  -6.3221
    -6.2539  -4.7310  -4.6174  -4.4164  -4.4046  -4.3257  -4.1809  -0.5117
    -0.4736  -0.4573  -0.4529   0.3422   0.4188   0.5422   0.8877   1.1859
     1.2554   1.4107   1.4882   2.0641

          k = 0.0833 0.0000 0.0000 ( 31951 PWs)   bands (ev):

   -21.8114 -20.8394 -20.3597 -20.3571 -19.5692 -19.4060 -19.3922 -18.9362
   -17.5808 -17.5799 -16.8337 -16.8332 -16.6363 -16.2949 -15.8091 -15.5559
   -14.9048 -14.6464 -14.6449 -14.1536 -13.2524 -13.2479 -12.4286 -12.1864
   -11.7338 -11.5126 -11.5123 -11.3313 -10.2014  -9.9653  -9.9643  -9.8837
    -9.7174  -9.4738  -9.3161  -9.1793  -9.1789  -9.0034  -9.0029  -8.8850
    -8.7711  -8.7412  -8.6047  -8.2310  -8.1151  -8.0674  -8.0670  -7.6835
    -7.2985  -7.0893  -6.9036  -6.7582  -6.7310  -6.4755  -6.1162  -5.8929
    -5.2635  -5.2600  -4.7944  -4.5401  -4.3523  -3.6728  -3.3886  -1.4337
    -1.1137  -0.7611  -0.0421  -0.0326   0.1741   0.4986   0.5333   0.8610
     1.5300   1.7440   2.1327   2.2038

          k = 0.0833 0.0722 0.0000 ( 31951 PWs)   bands (ev):

   -21.7198 -20.9904 -20.7489 -20.0304 -19.5881 -19.5212 -18.8488 -18.6178
   -18.1600 -17.4990 -16.9032 -16.8310 -16.8216 -16.6249 -16.2590 -15.1627
   -14.6734 -14.5758 -14.0589 -13.9378 -13.2510 -13.2477 -12.2443 -12.2311
   -12.0116 -11.7987 -11.5359 -11.3249 -10.7493 -10.3642  -9.7853  -9.7491
    -9.7205  -9.7043  -9.3815  -9.3154  -9.1766  -8.9945  -8.8332  -8.7916
    -8.6736  -8.6613  -8.5199  -8.4966  -8.1795  -7.8194  -7.5429  -7.3620
    -7.3531  -7.0280  -6.7816  -6.7476  -6.4532  -6.3960  -6.1608  -6.0677
    -5.7667  -5.2090  -4.7157  -4.5400  -4.4810  -3.9894  -3.7936  -1.0827
    -0.7516  -0.5726  -0.1307   0.2817   0.4918   0.5490   0.6690   0.9892
     1.4474   1.5855   1.6675   1.9178

          k = 0.0833-0.1443 0.0000 ( 31876 PWs)   bands (ev):

   -21.4464 -21.4446 -20.4784 -20.4779 -19.5583 -18.5922 -18.5906 -18.5856
[...]

     CASE: energy  _new < energy  _old

     new trust radius        =       0.0005179491 bohr
     new conv_thr            =       0.0000000100 Ry


ATOMIC_POSITIONS (angstrom)
C        1.230148130   0.000345726  -0.171275397
C       -0.000049428   0.710308899  -0.173829988
C       -0.000039705   2.131035822  -0.187568127
C        1.230319112   2.840574828  -0.195953440
C        1.230362121   4.260819891  -0.196002885
C        0.000039705   4.970372489  -0.187568127
C        0.000049428   6.391099412  -0.173829988
C        1.230207324   7.101070278  -0.171339253
C        3.689985646   0.000346938  -0.174670615
C        2.460300030   0.710790722  -0.180453332
C        2.460483697   2.131043167  -0.197214298
C        3.689989447   2.840750026  -0.205865976
C        3.690010553   4.260658285  -0.205865976
C        2.460535729   4.970350783  -0.197352711
C        2.460377657   6.390632336  -0.180631194
C        3.690014354   7.101061373  -0.174670615
C        6.149792676   0.000338033  -0.171339253
C        4.919622343   0.710775975  -0.180631194
C        4.919464271   2.131057528  -0.197352711
C        6.149637879   2.840588420  -0.196002885
C        6.149680888   4.260833483  -0.195953440
C        4.919516303   4.970365144  -0.197214298
C        4.919699970   6.390617589  -0.180453332
C        6.149851870   7.101062585  -0.171275397
C        4.045002164   2.201864266   3.376522388
C        2.698628555   2.568654369   3.375648055
C        2.343674156   3.917833706   3.376476571
C        3.334997836   4.899544045   3.376522388
C        4.681371445   4.532753942   3.375648055
C        5.036325844   3.183574605   3.376476571
H        4.321576965   1.150788519   3.367591005
H        1.927359311   1.802929614   3.366745924
H        1.295646153   4.205444573   3.369173273
H        3.058423035   5.950619792   3.367591005
H        5.452640689   5.298478697   3.366745924
H        6.084353847   2.895963738   3.369173273



     Writing output data file batch_graph+benzene.save/
     NEW-OLD atomic charge density approx. for the potential

     negative rho (up, down):  2.037E-04 0.000E+00

     total cpu time spent up to now is    10445.3 secs

     Self-consistent Calculation

     iteration #  1     ecut=    32.00 Ry     beta= 0.50
     Davidson diagonalization with overlap
     ethr =  1.00E-06,  avg # of iterations =  2.0

     Threshold (ethr) on eigenvalues was too large:
     Diagonalizing with lowered threshold

     Davidson diagonalization with overlap
     ethr =  2.43E-10,  avg # of iterations =  3.0

     negative rho (up, down):  2.037E-04 0.000E+00

     total cpu time spent up to now is    10504.7 secs

     total energy              =    -351.28282612 Ry
     Harris-Foulkes estimate   =    -351.28282632 Ry
     estimated scf accuracy    <       0.00000051 Ry

     iteration #  2     ecut=    32.00 Ry     beta= 0.50
     Davidson diagonalization with overlap
     ethr =  4.07E-10,  avg # of iterations =  2.0

     negative rho (up, down):  2.037E-04 0.000E+00

     total cpu time spent up to now is    10536.2 secs

     total energy              =    -351.28282622 Ry
     Harris-Foulkes estimate   =    -351.28282623 Ry
     estimated scf accuracy    <       0.00000010 Ry

     iteration #  3     ecut=    32.00 Ry     beta= 0.50
     Davidson diagonalization with overlap
     ethr =  7.58E-11,  avg # of iterations =  2.0

     negative rho (up, down):  2.037E-04 0.000E+00

     total cpu time spent up to now is    10566.6 secs

     total energy              =    -351.28282625 Ry
     Harris-Foulkes estimate   =    -351.28282624 Ry
     estimated scf accuracy    <       0.00000002 Ry

     iteration #  4     ecut=    32.00 Ry     beta= 0.50
     Davidson diagonalization with overlap
     ethr =  1.74E-11,  avg # of iterations =  2.2

     negative rho (up, down):  2.037E-04 0.000E+00

     total cpu time spent up to now is    10595.1 secs

     End of self-consistent calculation

          k = 0.0000 0.0000 0.0000 ( 31971 PWs)   bands (ev):

   -21.8585 -20.4027 -20.4025 -19.9262 -19.9232 -19.5690 -18.5180 -18.5153
   -18.5142 -18.5126 -16.8294 -16.8279 -16.6776 -15.5862 -15.0113 -15.0087
   -15.0083 -15.0080 -13.2652 -13.2430 -13.0348 -13.0346 -13.0334 -13.0332
   -12.8943 -12.8943 -11.3361 -10.2219 -10.2196  -9.9396  -9.8697  -9.8667
    -9.6916  -9.3327  -9.0389  -9.0383  -9.0326  -9.0315  -8.8948  -8.8548
    -8.8546  -8.7212  -8.6558  -8.2313  -8.1955  -7.6903  -7.6411  -7.5421
    -7.5417  -7.2738  -6.8107  -6.7752  -6.1004  -6.0995  -6.0768  -6.0701
    -5.5721  -5.5669  -4.7520  -4.6152  -4.5491  -2.3111  -2.3081  -2.3070
    -2.3065  -0.6164  -0.1388   0.3697   0.4771   0.6714   1.4152   1.4208
     1.4309   1.4336   1.4690   1.8749

          k = 0.0000 0.0722 0.0000 ( 31929 PWs)   bands (ev):

   -21.7668 -21.0361 -19.8369 -19.8337 -19.6003 -19.5657 -19.1259 -19.1240
   -17.7503 -17.7480 -17.5348 -16.8289 -16.8277 -15.8822 -15.8803 -14.5958
   -14.4803 -14.4800 -13.6337 -13.6326 -13.2630 -13.2430 -12.3734 -12.3727
   -12.3095 -12.3081 -11.5024 -11.3311 -10.6813 -10.6794 -10.0769 -10.0758
    -9.8287  -9.6930  -9.3326  -8.9751  -8.8041  -8.7095  -8.6547  -8.5437
    -8.5435  -8.3716  -8.3712  -8.2951  -8.1060  -7.6084  -7.5419  -7.3566
    -7.2071  -6.8961  -6.8077  -6.8033  -6.7324  -6.7208  -5.9316  -5.7629
    -5.2813  -5.2728  -5.2096  -4.6138  -4.6051  -3.3258  -3.3221  -1.3244
    -1.3239  -0.0100   0.0361   0.3887   0.4652   0.5299   0.5436   0.8006
     1.2164   1.6778   1.8316   2.2113

          k = 0.0000-0.1443 0.0000 ( 31940 PWs)   bands (ev):

   -21.4987 -21.4854 -19.5870 -19.5754 -19.5725 -19.5599 -19.5442 -18.6328
   -18.6272 -16.8591 -16.8563 -16.8547 -16.8478 -16.8248 -16.8212 -14.1040
   -14.1022 -14.0947 -14.0945 -13.2617 -13.2432 -13.1036 -13.1035 -11.4980
   -11.4958 -11.4909 -11.4899 -11.3261 -11.2766 -11.2734 -11.2722 -11.2713
    -9.6947  -9.5107  -9.4985  -9.3325  -8.7313  -8.6537  -8.5413  -8.5312
    -8.2352  -8.2343  -8.2296  -8.2283  -7.4559  -7.2539  -7.2534  -7.2395
    -7.1132  -6.9244  -6.9084  -6.8004  -6.7639  -6.2629  -6.2515  -6.2311
    -6.2199  -4.6696  -4.6350  -4.3297  -4.3274  -4.3190  -4.2868  -0.3957
    -0.3907  -0.3847  -0.3803   0.2358   0.3854   0.4642   0.8006   1.1733
     1.2260   1.4913   1.5204   1.9827

          k = 0.0833 0.0000 0.0000 ( 31951 PWs)   bands (ev):

   -21.7362 -20.7641 -20.2828 -20.2827 -19.5690 -19.3320 -19.3307 -18.8638
   -17.5071 -17.5067 -16.8360 -16.8283 -16.5734 -16.2242 -15.7377 -15.4852
   -14.8347 -14.5741 -14.5736 -14.0811 -13.2493 -13.2461 -12.3588 -12.1154
   -11.6623 -11.4416 -11.4413 -11.3048 -10.1326  -9.8964  -9.8952  -9.7907
    -9.6972  -9.4030  -9.3335  -9.1103  -9.1102  -8.9348  -8.9347  -8.7631
    -8.7126  -8.6971  -8.6078  -8.0907  -8.0580  -7.9967  -7.9964  -7.6166
    -7.3303  -6.9783  -6.9380  -6.7820  -6.7657  -6.4252  -6.0451  -5.8272
    -5.1672  -5.1649  -4.6829  -4.6315  -4.4690  -3.6087  -3.3314  -1.3528
    -1.0207  -0.6554   0.0290   0.0471   0.0766   0.4188   0.4478   0.8446
     1.4155   1.6312   2.0785   2.1837

          k = 0.0833 0.0722 0.0000 ( 31951 PWs)   bands (ev):

   -21.6446 -20.9151 -20.6735 -19.9539 -19.5692 -19.4777 -18.7762 -18.5449
   -18.0867 -17.4245 -16.8382 -16.8305 -16.8183 -16.5584 -16.1881 -15.0910
   -14.6012 -14.5050 -13.9886 -13.8657 -13.2487 -13.2452 -12.1730 -12.1606
   -11.9405 -11.7288 -11.4664 -11.3000 -10.6786 -10.2940  -9.6990  -9.6852
    -9.6768  -9.6395  -9.3336  -9.3105  -9.1058  -8.8463  -8.7453  -8.7235
    -8.6944  -8.5913  -8.5140  -8.4291  -8.1112  -7.7057  -7.4751  -7.3283
    -7.2908  -7.1128  -6.7769  -6.7728  -6.3838  -6.3383  -6.0778  -5.9999
    -5.6825  -5.0755  -4.6599  -4.6171  -4.5631  -3.9696  -3.7266  -0.9927
    -0.6695  -0.4942  -0.0097   0.1816   0.4333   0.4526   0.7223   0.9719
     1.3480   1.4949   1.7334   1.8913

          k = 0.0833-0.1443 0.0000 ( 31876 PWs)   bands (ev):

   -21.3769 -21.3636 -20.4091 -20.3961 -19.5681 -18.5218 -18.5181 -18.5122
   -18.5083 -17.6110 -17.6055 -16.8359 -16.8288 -16.2616 -16.2558 -15.2019
   -15.2012 -13.2491 -13.2439 -13.0379 -13.0332 -13.0330 -13.0305 -12.9598
   -12.9556 -11.3435 -11.3361 -11.2949 -10.6546 -10.6516  -9.8736  -9.8684
    -9.7001  -9.3655  -9.3565  -9.3336  -9.0415  -9.0371  -9.0328  -9.0308
    -8.7377  -8.7269  -8.2134  -8.2107  -7.5431  -7.5368  -7.3066  -7.2220
    -7.2124  -6.7790  -6.7692  -6.5611  -6.5556  -6.0955  -6.0919  -6.0854
    -6.0781  -5.0749  -5.0577  -4.6287  -4.5943  -4.0795  -4.0698  -0.8461
    -0.8388   0.3740   0.4191   0.4358   0.5140   0.5192   0.9907   1.3476
     1.3899   1.4162   1.4240   1.4347

          k =-0.1667 0.0000 0.0000 ( 31854 PWs)   bands (ev):

   -21.3743 -21.3662 -19.9286 -19.9283 -19.9213 -19.9205 -19.5657 -17.6084
   -17.6081 -16.8439 -16.8276 -16.6778 -16.6773 -16.2636 -16.2557 -15.5882
   -15.5877 -15.2035 -15.1956 -13.2516 -13.2320 -12.9596 -12.9593 -11.3381
   -11.3379 -11.2708 -10.6590 -10.6496 -10.2199 -10.2188 -10.2183 -10.2166
    -9.7063  -9.3663  -9.3566  -9.3341  -8.8938  -8.8937  -8.8600  -8.8592
    -8.8562  -8.8551  -8.7981  -8.7038  -7.7250  -7.6517  -7.6487  -7.6385
    -7.2336  -7.2251  -7.2154  -6.7771  -6.7517  -6.5578  -6.5516  -5.0832
    -5.0458  -4.6761  -4.6731  -4.6527  -4.6263  -4.0847  -4.0443  -0.8460
    -0.8403  -0.6030  -0.5993   0.3664   0.4615   0.4776   0.5123   0.5632
     0.7648   1.3462   1.3737   2.1155

          k =-0.1667 0.0722 0.0000 ( 31908 PWs)   bands (ev):

   -21.2831 -21.2750 -20.5571 -20.5491 -19.5671 -19.1306 -19.1221 -17.5262
   -17.5259 -17.0995 -17.0925 -16.9306 -16.9293 -16.8427 -16.8269 -15.1873
   -15.1869 -14.2568 -14.2493 -13.5108 -13.5105 -13.2514 -13.2301 -11.4657
   -11.4603 -11.2664 -10.7700 -10.7699 -10.5557 -10.5464  -9.7083  -9.6884
    -9.6811  -9.3345  -9.2599  -9.2511  -9.2035  -9.2006  -9.1633  -9.1632
    -8.8004  -8.7231  -8.3845  -8.3801  -7.8518  -7.8514  -7.5873  -7.5802
    -7.3138  -6.7962  -6.7698  -6.7171  -6.6918  -6.5922  -6.5887  -5.0363
    -4.9991  -4.7584  -4.7578  -4.7337  -4.6524  -4.5935  -4.4960  -0.4459
    -0.4432  -0.1909  -0.1885   0.2854   0.3356   0.4555   0.4968   0.5525
     0.8822   1.4674   1.4903   1.6052

          k =-0.1667-0.1443 0.0000 ( 31784 PWs)   bands (ev):

   -21.0154 -21.0096 -21.0045 -20.9941 -19.5667 -18.1785 -18.1735 -18.1712
   -18.1650 -17.2958 -17.2903 -17.2838 -17.2772 -16.8432 -16.8283 -14.4033
   -14.3976 -14.3960 -14.3906 -13.2521 -13.2283 -12.8671 -12.8665 -12.8600
   -12.8596 -11.2615 -10.2448 -10.2373 -10.2358 -10.2254  -9.8795  -9.8759
    -9.8649  -9.8610  -9.7090  -9.3348  -8.9667  -8.9491  -8.9335  -8.9275
    -8.7547  -8.6962  -8.3272  -8.3271  -8.3241  -8.3206  -7.3039  -7.0061
    -7.0057  -7.0029  -6.9997  -6.7811  -6.7421  -5.7028  -5.6947  -5.6817
    -5.6730  -4.9361  -4.8927  -4.8776  -4.8572  -4.6009  -4.5962  -0.0834
    -0.0762  -0.0549  -0.0418   0.3989   0.5015   0.6609   1.0221   1.1360
     1.1412   1.1574   1.1721   1.3009

          k =-0.0833 0.0722 0.0000 ( 31951 PWs)   bands (ev):

   -21.6446 -20.9151 -20.6735 -19.9539 -19.5691 -19.4778 -18.7762 -18.5449
   -18.0867 -17.4245 -16.8377 -16.8308 -16.8186 -16.5584 -16.1881 -15.0909
   -14.6012 -14.5050 -13.9886 -13.8657 -13.2488 -13.2451 -12.1730 -12.1606
   -11.9405 -11.7288 -11.4664 -11.2999 -10.6786 -10.2939  -9.6989  -9.6851
    -9.6766  -9.6397  -9.3338  -9.3104  -9.1058  -8.8467  -8.7444  -8.7234
    -8.6944  -8.5913  -8.5149  -8.4292  -8.1112  -7.7068  -7.4751  -7.3280
    -7.2908  -7.1097  -6.7782  -6.7719  -6.3837  -6.3408  -6.0782  -6.0000
    -5.6824  -5.0749  -4.6564  -4.6187  -4.5647  -3.9699  -3.7269  -0.9920
    -0.6699  -0.4934  -0.0089   0.1855   0.4332   0.4490   0.7213   0.9722
     1.3668   1.5221   1.7335   1.8842

     the Fermi energy is    -2.3082 ev

!    total energy              =    -351.28282625 Ry
     Harris-Foulkes estimate   =    -351.28282625 Ry
     estimated scf accuracy    <          5.5E-09 Ry

     The total energy is the sum of the following terms:

     one-electron contribution =   -4565.88638382 Ry
     hartree contribution      =    2303.02877842 Ry
     xc contribution           =    -112.23310090 Ry
     ewald contribution        =    2023.81070090 Ry
     smearing contrib. (-TS)   =      -0.00282084 Ry

     convergence has been achieved in   4 iterations

     Forces acting on atoms (cartesian axes, Ry/au):

     atom    1 type  1   force =    -0.00003569    0.00000928    0.00000741
     atom    2 type  1   force =     0.00004876    0.00003847   -0.00002867
     atom    3 type  1   force =     0.00003888    0.00004505    0.00000618
     atom    4 type  1   force =     0.00000559   -0.00000576   -0.00001250
     atom    5 type  1   force =     0.00003366   -0.00000449   -0.00002231
     atom    6 type  1   force =    -0.00003888   -0.00004505    0.00000618
     atom    7 type  1   force =    -0.00004876   -0.00003847   -0.00002867
     atom    8 type  1   force =    -0.00000821   -0.00001266    0.00000086
     atom    9 type  1   force =    -0.00001802   -0.00000126   -0.00001898
     atom   10 type  1   force =     0.00003504   -0.00003810    0.00001882
     atom   11 type  1   force =     0.00001888    0.00003281    0.00003966
     atom   12 type  1   force =     0.00000563    0.00001007   -0.00000694
     atom   13 type  1   force =    -0.00000563   -0.00001007   -0.00000694
     atom   14 type  1   force =     0.00000071    0.00000146    0.00002695
     atom   15 type  1   force =    -0.00005493   -0.00000063    0.00000232
     atom   16 type  1   force =     0.00001802    0.00000126   -0.00001898
     atom   17 type  1   force =     0.00000821    0.00001266    0.00000086
     atom   18 type  1   force =     0.00005493    0.00000063    0.00000232
     atom   19 type  1   force =    -0.00000071   -0.00000146    0.00002695
     atom   20 type  1   force =    -0.00003366    0.00000449   -0.00002231
     atom   21 type  1   force =    -0.00000559    0.00000576   -0.00001250
     atom   22 type  1   force =    -0.00001888   -0.00003281    0.00003966
     atom   23 type  1   force =    -0.00003504    0.00003810    0.00001882
     atom   24 type  1   force =     0.00003569   -0.00000928    0.00000741
     atom   25 type  1   force =     0.00000547    0.00003937   -0.00003436
     atom   26 type  1   force =    -0.00004446    0.00003575    0.00004039
     atom   27 type  1   force =     0.00003321   -0.00003099    0.00000405
     atom   28 type  1   force =    -0.00000547   -0.00003937   -0.00003436
     atom   29 type  1   force =     0.00004446   -0.00003575    0.00004039
     atom   30 type  1   force =    -0.00003321    0.00003099    0.00000405
     atom   31 type  2   force =    -0.00003711    0.00005785    0.00002348
     atom   32 type  2   force =    -0.00003266    0.00000552   -0.00000927
     atom   33 type  2   force =    -0.00001176   -0.00000968   -0.00003709
     atom   34 type  2   force =     0.00003711   -0.00005785    0.00002348
     atom   35 type  2   force =     0.00003266   -0.00000552   -0.00000927
     atom   36 type  2   force =     0.00001176    0.00000968   -0.00003709

     Total force =     0.000284     Total SCF correction =     0.000188
     SCF correction compared to forces is large: reduce conv_thr to get better values

     bfgs converged in  50 scf cycles and  48 bfgs steps
     (criteria: energy <  1.0E-05 Ry, force <  1.0E-04 Ry/Bohr)

     End of BFGS Geometry Optimization

     Final energy   =    -351.2828262457 Ry
Begin final coordinates

ATOMIC_POSITIONS (angstrom)
C        1.230148130   0.000345726  -0.171275397
C       -0.000049428   0.710308899  -0.173829988
C       -0.000039705   2.131035822  -0.187568127
C        1.230319112   2.840574828  -0.195953440
C        1.230362121   4.260819891  -0.196002885
C        0.000039705   4.970372489  -0.187568127
C        0.000049428   6.391099412  -0.173829988
C        1.230207324   7.101070278  -0.171339253
C        3.689985646   0.000346938  -0.174670615
C        2.460300030   0.710790722  -0.180453332
C        2.460483697   2.131043167  -0.197214298
C        3.689989447   2.840750026  -0.205865976
C        3.690010553   4.260658285  -0.205865976
C        2.460535729   4.970350783  -0.197352711
C        2.460377657   6.390632336  -0.180631194
C        3.690014354   7.101061373  -0.174670615
C        6.149792676   0.000338033  -0.171339253
C        4.919622343   0.710775975  -0.180631194
C        4.919464271   2.131057528  -0.197352711
C        6.149637879   2.840588420  -0.196002885
C        6.149680888   4.260833483  -0.195953440
C        4.919516303   4.970365144  -0.197214298
C        4.919699970   6.390617589  -0.180453332
C        6.149851870   7.101062585  -0.171275397
C        4.045002164   2.201864266   3.376522388
C        2.698628555   2.568654369   3.375648055
C        2.343674156   3.917833706   3.376476571
C        3.334997836   4.899544045   3.376522388
C        4.681371445   4.532753942   3.375648055
C        5.036325844   3.183574605   3.376476571
H        4.321576965   1.150788519   3.367591005
H        1.927359311   1.802929614   3.366745924
H        1.295646153   4.205444573   3.369173273
H        3.058423035   5.950619792   3.367591005
H        5.452640689   5.298478697   3.366745924
H        6.084353847   2.895963738   3.369173273
End final coordinates



     Writing output data file batch_graph+benzene.save/

     init_run     :     20.00s CPU     20.31s WALL (       1 calls)
     electrons    :   9703.07s CPU   9845.06s WALL (      50 calls)
     update_pot   :    172.82s CPU    176.82s WALL (      49 calls)
     forces       :    521.10s CPU    526.23s WALL (      50 calls)

     Called by init_run:
     wfcinit      :     15.65s CPU     15.80s WALL (       1 calls)
     potinit      :      2.36s CPU      2.47s WALL (       1 calls)
     hinit0       :      1.14s CPU      1.14s WALL (       1 calls)

     Called by electrons:
     c_bands      :   8064.84s CPU   8153.07s WALL (     306 calls)
     sum_band     :   1013.29s CPU   1035.48s WALL (     306 calls)
     v_of_rho     :    524.12s CPU    548.54s WALL (     335 calls)
     newd         :    187.38s CPU    197.86s WALL (     335 calls)
     mix_rho      :     10.55s CPU     10.85s WALL (     306 calls)

     Called by c_bands:
     init_us_2    :     33.49s CPU     33.59s WALL (    6630 calls)
     cegterg      :   7990.58s CPU   8077.91s WALL (    3060 calls)

     Called by sum_band:
     sum_band:bec :      1.19s CPU      1.20s WALL (    3060 calls)
     addusdens    :    138.01s CPU    148.39s WALL (     306 calls)

     Called by *egterg:
     h_psi        :   4067.75s CPU   4133.96s WALL (   10967 calls)
     s_psi        :   1208.66s CPU   1211.86s WALL (   10967 calls)
     g_psi        :      6.35s CPU      6.39s WALL (    7897 calls)
     cdiaghg      :    263.67s CPU    264.36s WALL (   10257 calls)

     Called by h_psi:
     h_psi:pot    :   4058.63s CPU   4116.65s WALL (   10967 calls)
     h_psi:calbec :   1297.32s CPU   1301.43s WALL (   10967 calls)
     vloc_psi     :   1545.35s CPU   1596.34s WALL (   10967 calls)
     add_vuspsi   :   1215.91s CPU   1218.83s WALL (   10967 calls)

     General routines
     calbec       :   2136.13s CPU   2142.70s WALL (   16027 calls)
     fft          :    325.60s CPU    337.94s WALL (   21175 calls)
     ffts         :      1.54s CPU      1.61s WALL (     641 calls)
     fftw         :   1739.37s CPU   1797.39s WALL ( 1416824 calls)
     interpolate  :      6.38s CPU      6.63s WALL (     335 calls)

     Parallel routines
     fft_scatt_xy :    186.10s CPU    193.18s WALL ( 1438640 calls)
     fft_scatt_yz :    300.62s CPU    324.47s WALL ( 1438640 calls)

     PWSCF        :      2h54m CPU      2h56m WALL


   This run was terminated on:  23: 1:45   2Dec2020            

=------------------------------------------------------------------------------=
   JOB DONE.
=------------------------------------------------------------------------------=
