
     Program PWSCF v.6.4.1 starts on  3Dec2020 at  1:42:25 

     This program is part of the open-source Quantum ESPRESSO suite
     for quantum simulation of materials; please cite
         "P. Giannozzi et al., J. Phys.:Condens. Matter 21 395502 (2009);
         "P. Giannozzi et al., J. Phys.:Condens. Matter 29 465901 (2017);
          URL http://www.quantum-espresso.org", 
     in publications or presentations arising from this work. More details at
     http://www.quantum-espresso.org/quote

     Parallel version (MPI), running on     8 processors

     MPI processes distributed on     1 nodes
     R & G space division:  proc/nbgrp/npool/nimage =       8
     Waiting for input...
     Reading input from standard input

     Current dimensions of program PWSCF are:
     Max number of different atomic species (ntypx) = 10
     Max number of k-points (npk) =  40000
     Max angular momentum in pseudopotentials (lmaxx) =  3

     IMPORTANT: XC functional enforced from input :
     Exchange-correlation      = VDW-DF ( 1  4  4  0 1 0)
     Any further DFT definition will be discarded
     Please, verify this is what you really want

               file C.pbe-rrkjus.UPF: wavefunction(s)  2S 2P renormalized

     Subspace diagonalization in iterative solution of the eigenvalue problem:
     a serial algorithm will be used

     Message from routine setup:
     DEPRECATED: symmetry with ibrav=0, use correct ibrav instead

     Parallelization info
     --------------------
     sticks:   dense  smooth     PW     G-vecs:    dense   smooth      PW
     Min         714     285     79               126154    31889    4649
     Max         715     286     80               126163    31900    4658
     Sum        5713    2283    637              1009261   255153   37237



     bravais-lattice index     =            0
     lattice parameter (alat)  =       4.6487  a.u.
     unit-cell volume          =   10440.3175 (a.u.)^3
     number of atoms/cell      =           36
     number of atomic types    =            2
     number of electrons       =       126.00
     number of Kohn-Sham states=           76
     kinetic-energy cutoff     =      32.0000  Ry
     charge density cutoff     =     320.0000  Ry
     convergence threshold     =      1.0E-06
     mixing beta               =       0.5000
     number of iterations used =            8  plain     mixing
     Exchange-correlation      = VDW-DF ( 1  4  4  0 1 0)
     nstep                     =          200


     celldm(1)=   4.648726  celldm(2)=   0.000000  celldm(3)=   0.000000
     celldm(4)=   0.000000  celldm(5)=   0.000000  celldm(6)=   0.000000

     crystal axes: (cart. coord. in units of alat)
               a(1) = (   3.000000   0.000000   0.000000 )  
               a(2) = (   0.000000   3.464102   0.000000 )  
               a(3) = (   0.000000   0.000000  10.000000 )  

     reciprocal axes: (cart. coord. in units 2 pi/alat)
               b(1) = (  0.333333  0.000000  0.000000 )  
               b(2) = (  0.000000  0.288675  0.000000 )  
               b(3) = (  0.000000  0.000000  0.100000 )  


     PseudoPot. # 1 for C  read from file:
     ../../pseudopotentials/C.pbe-rrkjus.UPF
     MD5 check sum: 00fb224312de0c5b6853bd333518df6f
     Pseudo is Ultrasoft, Zval =  4.0
     Generated by new atomic code, or converted to UPF format
     Using radial grid of  627 points,  4 beta functions with: 
                l(1) =   0
                l(2) =   0
                l(3) =   1
                l(4) =   1
     Q(r) pseudized with 0 coefficients 


     PseudoPot. # 2 for H  read from file:
     ../../pseudopotentials/H.pbe-rrkjus_psl.1.0.0.UPF
     MD5 check sum: 3f4114867bd07edc7f1424d066fc1888
     Pseudo is Ultrasoft, Zval =  1.0
     Generated using "atomic" code by A. Dal Corso v.6.3MaX
     Using radial grid of  929 points,  2 beta functions with: 
                l(1) =   0
                l(2) =   0
     Q(r) pseudized with 0 coefficients 


     vdW kernel table read from file vdW_kernel_table
     MD5 check sum: 48e77a2e26edf626eeb0eaa751ad5cac

     atomic species   valence    mass     pseudopotential
        C              4.00    12.01070     C ( 1.00)
        H              1.00     1.00790     H ( 1.00)

      2 Sym. Ops. (no inversion) found ( 1 have fractional translation)



   Cartesian axes

     site n.     atom                  positions (alat units)
         1           C   tau(   1) = (   0.5000000   0.0000000   0.0000000  )
         2           C   tau(   2) = (   0.0000000   0.2886752   0.0000000  )
         3           C   tau(   3) = (   0.0000000   0.8660255   0.0000000  )
         4           C   tau(   4) = (   0.5000000   1.1547006   0.0000000  )
         5           C   tau(   5) = (   0.5000000   1.7320509   0.0000000  )
         6           C   tau(   6) = (   0.0000000   2.0207261   0.0000000  )
         7           C   tau(   7) = (   0.0000000   2.5980764   0.0000000  )
         8           C   tau(   8) = (   0.5000000   2.8867516   0.0000000  )
         9           C   tau(   9) = (   1.5000001   0.0000000   0.0000000  )
        10           C   tau(  10) = (   1.0000001   0.2886752   0.0000000  )
        11           C   tau(  11) = (   1.0000001   0.8660255   0.0000000  )
        12           C   tau(  12) = (   1.5000001   1.1547006   0.0000000  )
        13           C   tau(  13) = (   1.5000001   1.7320509   0.0000000  )
        14           C   tau(  14) = (   1.0000001   2.0207261   0.0000000  )
        15           C   tau(  15) = (   1.0000001   2.5980764   0.0000000  )
        16           C   tau(  16) = (   1.5000001   2.8867516   0.0000000  )
        17           C   tau(  17) = (   2.5000002   0.0000000   0.0000000  )
        18           C   tau(  18) = (   2.0000002   0.2886752   0.0000000  )
        19           C   tau(  19) = (   2.0000002   0.8660255   0.0000000  )
        20           C   tau(  20) = (   2.5000002   1.1547006   0.0000000  )
        21           C   tau(  21) = (   2.5000002   1.7320509   0.0000000  )
        22           C   tau(  22) = (   2.0000002   2.0207261   0.0000000  )
        23           C   tau(  23) = (   2.0000002   2.5980764   0.0000000  )
        24           C   tau(  24) = (   2.5000002   2.8867516   0.0000000  )
        25           C   tau(  25) = (   1.9009414   1.0424345   1.2195123  )
        26           C   tau(  26) = (   1.3533101   0.8957415   1.2195123  )
        27           C   tau(  27) = (   0.9523658   1.2966857   1.2195123  )
        28           C   tau(  28) = (   1.0990588   1.8443171   1.2195123  )
        29           C   tau(  29) = (   1.6466902   1.9910101   1.2195123  )
        30           C   tau(  30) = (   2.0476344   1.5900658   1.2195123  )
        31           H   tau(  31) = (   2.2144677   0.7289082   1.2195123  )
        32           H   tau(  32) = (   1.2385082   0.4675323   1.2195123  )
        33           H   tau(  33) = (   0.5241566   1.1818839   1.2195123  )
        34           H   tau(  34) = (   0.7855325   2.1578434   1.2195123  )
        35           H   tau(  35) = (   1.7614920   2.4192193   1.2195123  )
        36           H   tau(  36) = (   2.4758436   1.7048677   1.2195123  )

     number of k points=    10  gaussian smearing, width (Ry)=  0.0200
                       cart. coord. in units 2pi/alat
        k(    1) = (   0.0000000   0.0000000   0.0000000), wk =   0.1250000
        k(    2) = (   0.0000000   0.0721688   0.0000000), wk =   0.2500000
        k(    3) = (   0.0000000  -0.1443376   0.0000000), wk =   0.1250000
        k(    4) = (   0.0833333   0.0000000   0.0000000), wk =   0.2500000
        k(    5) = (   0.0833333   0.0721688   0.0000000), wk =   0.2500000
        k(    6) = (   0.0833333  -0.1443376   0.0000000), wk =   0.2500000
        k(    7) = (  -0.1666667   0.0000000   0.0000000), wk =   0.1250000
        k(    8) = (  -0.1666667   0.0721688   0.0000000), wk =   0.2500000
        k(    9) = (  -0.1666667  -0.1443376   0.0000000), wk =   0.1250000
        k(   10) = (  -0.0833333   0.0721688   0.0000000), wk =   0.2500000

     Dense  grid:  1009261 G-vectors     FFT dimensions: (  80,  96, 270)

     Smooth grid:   255153 G-vectors     FFT dimensions: (  54,  60, 180)

     Estimated max dynamical RAM per process >     428.17 MB

     Estimated total dynamical RAM >       3.35 GB

     Initial potential from superposition of free atoms

     starting charge  125.99836, renormalised to  126.00000

     negative rho (up, down):  2.481E-04 0.000E+00


     %%%%%%%%%%%%%%%%%%%%%%%%%%%%%%%%%%%%%%%%%%%%%%%%%%%%%%%%%%%%%%%%%%%%%%%%
     %                                                                      %
     % You are using vdW-DF, which was implemented by the Thonhauser group. %
     % Please cite the following two papers that made this development      %
     % possible and the two reviews that describe the various versions:     %
     %                                                                      %
     %   T. Thonhauser et al., PRL 115, 136402 (2015).                      %
     %   T. Thonhauser et al., PRB 76, 125112 (2007).                       %
     %   K. Berland et al., Rep. Prog. Phys. 78, 066501 (2015).             %
     %   D.C. Langreth et al., J. Phys.: Condens. Matter 21, 084203 (2009). %
     %                                                                      %
     %                                                                      %
     % If you are calculating the stress with vdW-DF, please also cite:     %
     %                                                                      %
     %   R. Sabatini et al., J. Phys.: Condens. Matter 24, 424209 (2012).   %
     %                                                                      %
     %%%%%%%%%%%%%%%%%%%%%%%%%%%%%%%%%%%%%%%%%%%%%%%%%%%%%%%%%%%%%%%%%%%%%%%%


     Starting wfcs are  126 randomized atomic wfcs

     total cpu time spent up to now is       20.7 secs

     Self-consistent Calculation

     iteration #  1     ecut=    32.00 Ry     beta= 0.50
     Davidson diagonalization with overlap
     ethr =  1.00E-02,  avg # of iterations =  2.0

     negative rho (up, down):  2.106E-04 0.000E+00

     total cpu time spent up to now is       57.9 secs

     total energy              =    -350.86830756 Ry
     Harris-Foulkes estimate   =    -352.96760461 Ry
     estimated scf accuracy    <       4.24454456 Ry

     iteration #  2     ecut=    32.00 Ry     beta= 0.50
     Davidson diagonalization with overlap
     ethr =  3.37E-03,  avg # of iterations =  6.0

     negative rho (up, down):  5.093E-04 0.000E+00

     total cpu time spent up to now is       90.2 secs

     total energy              =    -351.20577938 Ry
     Harris-Foulkes estimate   =    -351.36063226 Ry
     estimated scf accuracy    <       0.39504325 Ry

     iteration #  3     ecut=    32.00 Ry     beta= 0.50
     Davidson diagonalization with overlap
     ethr =  3.14E-04,  avg # of iterations =  8.4

     negative rho (up, down):  4.349E-04 0.000E+00

     total cpu time spent up to now is      125.7 secs

     total energy              =    -351.24422516 Ry
     Harris-Foulkes estimate   =    -351.26103090 Ry
     estimated scf accuracy    <       0.05267392 Ry

     iteration #  4     ecut=    32.00 Ry     beta= 0.50
     Davidson diagonalization with overlap
     ethr =  4.18E-05,  avg # of iterations =  7.6

     negative rho (up, down):  2.853E-04 0.000E+00

     total cpu time spent up to now is      161.5 secs

     total energy              =    -351.25221357 Ry
     Harris-Foulkes estimate   =    -351.25750974 Ry
     estimated scf accuracy    <       0.01630715 Ry

     iteration #  5     ecut=    32.00 Ry     beta= 0.50
     Davidson diagonalization with overlap
     ethr =  1.29E-05,  avg # of iterations =  4.2

     negative rho (up, down):  2.982E-04 0.000E+00

     total cpu time spent up to now is      191.9 secs

     total energy              =    -351.25551399 Ry
     Harris-Foulkes estimate   =    -351.25584340 Ry
     estimated scf accuracy    <       0.00258907 Ry

     iteration #  6     ecut=    32.00 Ry     beta= 0.50
     Davidson diagonalization with overlap
     ethr =  2.05E-06,  avg # of iterations =  7.1

     negative rho (up, down):  2.412E-04 0.000E+00

     total cpu time spent up to now is      224.8 secs

     total energy              =    -351.25589157 Ry
     Harris-Foulkes estimate   =    -351.25596797 Ry
     estimated scf accuracy    <       0.00026911 Ry

     iteration #  7     ecut=    32.00 Ry     beta= 0.50
     Davidson diagonalization with overlap
     ethr =  2.14E-07,  avg # of iterations =  2.3

     negative rho (up, down):  2.221E-04 0.000E+00

     total cpu time spent up to now is      253.0 secs

     total energy              =    -351.25594217 Ry
     Harris-Foulkes estimate   =    -351.25594080 Ry
     estimated scf accuracy    <       0.00002149 Ry

     iteration #  8     ecut=    32.00 Ry     beta= 0.50
     Davidson diagonalization with overlap
     ethr =  1.71E-08,  avg # of iterations =  2.1

     negative rho (up, down):  2.141E-04 0.000E+00

     total cpu time spent up to now is      285.5 secs

     total energy              =    -351.25594630 Ry
     Harris-Foulkes estimate   =    -351.25594751 Ry
     estimated scf accuracy    <       0.00000380 Ry

     iteration #  9     ecut=    32.00 Ry     beta= 0.50
     Davidson diagonalization with overlap
     ethr =  3.02E-09,  avg # of iterations =  2.1

     negative rho (up, down):  2.109E-04 0.000E+00

     total cpu time spent up to now is      314.8 secs

     End of self-consistent calculation

          k = 0.0000 0.0000 0.0000 ( 31971 PWs)   bands (ev):

   -21.9150 -20.4616 -20.4575 -19.9892 -19.9772 -19.5531 -18.5742 -18.5698
   -18.5649 -18.5636 -16.8433 -16.8130 -16.7032 -15.6405 -15.0613 -15.0604
   -15.0596 -15.0590 -13.2612 -13.2296 -13.0836 -13.0826 -13.0818 -13.0794
   -12.9447 -12.9387 -11.3390 -10.2689 -10.2673 -10.0113  -9.9213  -9.9198
    -9.6667  -9.3222  -9.0915  -9.0895  -9.0798  -9.0759  -8.9420  -8.9060
    -8.9051  -8.7483  -8.6516  -8.3967  -8.2224  -7.8269  -7.7006  -7.5882
    -7.5872  -7.0336  -6.7804  -6.7705  -6.2078  -6.2054  -6.1208  -6.0611
    -5.6169  -5.6158  -4.9055  -4.4856  -4.3361  -2.3894  -2.3743  -2.3638
    -2.3421  -0.7243  -0.0523   0.4439   0.5714   0.6985   1.3592   1.3642
     1.3656   1.3806   1.5833   1.9852

          k = 0.0000 0.0722 0.0000 ( 31929 PWs)   bands (ev):

   -21.8233 -21.0926 -19.9018 -19.8877 -19.6664 -19.5432 -19.1775 -19.1734
   -17.8050 -17.8014 -17.5899 -16.8166 -16.8112 -15.9327 -15.9314 -14.6489
   -14.5312 -14.5308 -13.6848 -13.6841 -13.2482 -13.2246 -12.4232 -12.4231
   -12.3581 -12.3578 -11.5537 -11.3305 -10.7293 -10.7279 -10.1273 -10.1246
    -9.9116  -9.6679  -9.3216  -9.1082  -8.8514  -8.6622  -8.6517  -8.5943
    -8.5889  -8.4216  -8.4185  -8.3440  -8.1518  -7.7886  -7.6084  -7.4271
    -7.0913  -6.9417  -6.8941  -6.7754  -6.6894  -6.6480  -5.9816  -5.8067
    -5.4292  -5.3585  -5.2748  -4.4842  -4.4220  -3.3932  -3.3520  -1.3882
    -1.3849  -0.1151   0.0887   0.3775   0.4636   0.5679   0.6189   0.8286
     1.3035   1.7852   1.8630   2.2047

          k = 0.0000-0.1443 0.0000 ( 31940 PWs)   bands (ev):

   -21.5572 -21.5398 -19.6732 -19.6341 -19.6302 -19.6097 -19.5030 -18.6836
   -18.6828 -16.9388 -16.9186 -16.9065 -16.8995 -16.8004 -16.7827 -14.1594
   -14.1576 -14.1423 -14.1398 -13.2573 -13.2253 -13.1580 -13.1414 -11.5489
   -11.5481 -11.5385 -11.5370 -11.3341 -11.3313 -11.3255 -11.3184 -11.3054
    -9.6709  -9.6174  -9.5973  -9.3208  -8.6883  -8.6484  -8.5961  -8.5669
    -8.2880  -8.2832  -8.2757  -8.2752  -7.6353  -7.3305  -7.3280  -7.3205
    -6.9770  -6.9580  -6.9155  -6.7456  -6.7217  -6.3545  -6.3132  -6.2901
    -6.2214  -4.7454  -4.6115  -4.4013  -4.3820  -4.2952  -4.1253  -0.4930
    -0.4587  -0.4380  -0.4307   0.3350   0.4157   0.5540   0.8733   1.1979
     1.2507   1.4291   1.5186   2.0584

          k = 0.0833 0.0000 0.0000 ( 31951 PWs)   bands (ev):

   -21.7927 -20.8207 -20.3423 -20.3376 -19.5727 -19.3864 -19.3691 -18.9163
   -17.5613 -17.5608 -16.8310 -16.8219 -16.6111 -16.2748 -15.7865 -15.5394
   -14.8882 -14.6252 -14.6237 -14.1312 -13.2337 -13.2271 -12.4105 -12.1642
   -11.7099 -11.4918 -11.4913 -11.3016 -10.1843  -9.9465  -9.9454  -9.8769
    -9.6735  -9.4509  -9.3225  -9.1590  -9.1585  -8.9832  -8.9831  -8.8718
    -8.7466  -8.7238  -8.5931  -8.2308  -8.1030  -8.0431  -8.0422  -7.6667
    -7.2911  -7.0764  -6.8668  -6.7404  -6.7178  -6.4499  -6.0891  -5.8772
    -5.2524  -5.2490  -4.8064  -4.5227  -4.3056  -3.6513  -3.3573  -1.4182
    -1.0960  -0.7530  -0.0216  -0.0121   0.1624   0.5074   0.5490   0.8722
     1.5204   1.7399   2.1427   2.2101

          k = 0.0833 0.0722 0.0000 ( 31951 PWs)   bands (ev):

   -21.7011 -20.9716 -20.7302 -20.0124 -19.5863 -19.5033 -18.8290 -18.5981
   -18.1402 -17.4799 -16.8867 -16.8218 -16.8114 -16.6025 -16.2393 -15.1410
   -14.6514 -14.5576 -14.0408 -13.9166 -13.2314 -13.2283 -12.2214 -12.2110
   -11.9890 -11.7798 -11.5176 -11.2951 -10.7277 -10.3433  -9.7762  -9.7320
    -9.6873  -9.6720  -9.3606  -9.3203  -9.1526  -8.9861  -8.8190  -8.7719
    -8.6599  -8.6377  -8.5092  -8.4773  -8.1594  -7.8215  -7.5244  -7.3416
    -7.3364  -6.9700  -6.7667  -6.7388  -6.4301  -6.3931  -6.1473  -6.0475
    -5.7521  -5.2042  -4.6998  -4.5240  -4.4571  -3.9521  -3.7742  -1.0593
    -0.7365  -0.5458  -0.1212   0.2776   0.4891   0.5531   0.6942   1.0017
     1.4498   1.6205   1.6749   1.9270

          k = 0.0833-0.1443 0.0000 ( 31876 PWs)   bands (ev):

   -21.4354 -21.4180 -20.4674 -20.4516 -19.5589 -18.5798 -18.5695 -18.5677
   -18.5563 -17.6637 -17.6617 -16.8231 -16.8133 -16.3171 -16.3044 -15.2526
   -15.2498 -13.2386 -13.2355 -13.0888 -13.0876 -13.0753 -13.0720 -13.0138
   -13.0027 -11.3985 -11.3792 -11.2880 -10.7078 -10.6984  -9.9241  -9.9160
    -9.6752  -9.4884  -9.4552  -9.3223  -9.0963  -9.0889  -9.0793  -9.0701
    -8.7651  -8.6946  -8.3042  -8.2626  -7.5931  -7.5840  -7.2723  -7.2607
    -7.1188  -6.7769  -6.7553  -6.6102  -6.5971  -6.2266  -6.1544  -6.1398
    -6.0982  -5.2186  -5.1241  -4.5087  -4.3878  -4.1236  -4.1221  -0.9037
    -0.8975   0.3980   0.4137   0.4775   0.4978   0.5320   1.0566   1.3447
     1.3693   1.3852   1.3940   1.4034

          k =-0.1667 0.0000 0.0000 ( 31854 PWs)   bands (ev):

   -21.4303 -21.4232 -19.9913 -19.9845 -19.9832 -19.9738 -19.5409 -17.6650
   -17.6603 -16.8318 -16.8251 -16.7310 -16.7289 -16.3168 -16.2952 -15.6383
   -15.6354 -15.2596 -15.2473 -13.2404 -13.2157 -13.0082 -13.0000 -11.3924
   -11.3900 -11.2608 -10.7078 -10.6979 -10.2719 -10.2713 -10.2658 -10.2649
    -9.6842  -9.4824  -9.4681  -9.3230  -8.9436  -8.9432  -8.9064  -8.9051
    -8.9047  -8.9030  -8.7403  -8.7070  -7.9503  -7.7219  -7.7147  -7.7073
    -7.2707  -7.2601  -6.9158  -6.7415  -6.7194  -6.6108  -6.5988  -5.2408
    -5.0991  -4.7426  -4.7295  -4.7169  -4.4707  -4.1455  -3.9295  -0.9308
    -0.9100  -0.6531  -0.6339   0.2262   0.4542   0.5280   0.5745   0.7331
     0.8651   1.3701   1.4114   2.1895

          k =-0.1667 0.0722 0.0000 ( 31908 PWs)   bands (ev):

   -21.3390 -21.3320 -20.6127 -20.6069 -19.5616 -19.1859 -19.1684 -17.5831
   -17.5784 -17.1544 -17.1532 -16.9911 -16.9816 -16.8198 -16.8038 -15.2376
   -15.2366 -14.3119 -14.2995 -13.5649 -13.5601 -13.2279 -13.2134 -11.5194
   -11.5091 -11.2567 -10.8209 -10.8202 -10.6044 -10.5945  -9.7407  -9.7294
    -9.6815  -9.3871  -9.3637  -9.3232  -9.2519  -9.2507  -9.2120  -9.2116
    -8.7768  -8.7661  -8.4534  -8.4128  -7.9008  -7.8980  -7.6334  -7.6265
    -7.2025  -6.8571  -6.7782  -6.6941  -6.6437  -6.6379  -6.6271  -5.1969
    -5.0579  -4.9415  -4.8352  -4.7912  -4.7067  -4.4247  -4.2435  -0.5008
    -0.4933  -0.2878  -0.2552   0.1363   0.2776   0.5715   0.6243   0.6794
     0.9809   1.5005   1.5252   1.6876

          k =-0.1667-0.1443 0.0000 ( 31784 PWs)   bands (ev):

   -21.0750 -21.0669 -21.0564 -21.0512 -19.5570 -18.2337 -18.2285 -18.2211
   -18.2199 -17.3559 -17.3461 -17.3429 -17.3216 -16.8223 -16.8124 -14.4571
   -14.4496 -14.4461 -14.4372 -13.2324 -13.2159 -12.9233 -12.9182 -12.9115
   -12.9019 -11.2504 -10.3005 -10.2926 -10.2776 -10.2658  -9.9359  -9.9277
    -9.9135  -9.9037  -9.6855  -9.3231  -9.1366  -9.1137  -9.0741  -8.9906
    -8.6478  -8.6174  -8.3760  -8.3733  -8.3722  -8.3671  -7.0988  -7.0561
    -7.0529  -7.0516  -7.0425  -6.7578  -6.7357  -5.9053  -5.7697  -5.7372
    -5.6885  -5.1128  -4.9574  -4.9421  -4.9045  -4.4046  -4.3806  -0.2254
    -0.1450  -0.0950  -0.0915   0.5047   0.5615   0.7768   1.0416   1.0729
     1.0769   1.1496   1.1726   1.3891

          k =-0.0833 0.0722 0.0000 ( 31951 PWs)   bands (ev):

   -21.7011 -20.9716 -20.7302 -20.0124 -19.5864 -19.5031 -18.8290 -18.5980
   -18.1402 -17.4800 -16.8890 -16.8181 -16.8128 -16.6025 -16.2391 -15.1411
   -14.6516 -14.5578 -14.0406 -13.9167 -13.2314 -13.2278 -12.2217 -12.2113
   -11.9889 -11.7798 -11.5179 -11.2948 -10.7276 -10.3431  -9.7761  -9.7317
    -9.6903  -9.6710  -9.3590  -9.3213  -9.1529  -8.9853  -8.8193  -8.7720
    -8.6632  -8.6367  -8.5039  -8.4781  -8.1596  -7.8156  -7.5246  -7.3492
    -7.3365  -6.9826  -6.7715  -6.7333  -6.4301  -6.3780  -6.1467  -6.0475
    -5.7506  -5.2084  -4.7076  -4.5230  -4.4528  -3.9500  -3.7724  -1.0638
    -0.7345  -0.5495  -0.1273   0.2692   0.4959   0.5622   0.7022   1.0014
     1.4350   1.5776   1.6811   1.9404

     the Fermi energy is    -2.3674 ev

!    total energy              =    -351.25594663 Ry
     Harris-Foulkes estimate   =    -351.25594692 Ry
     estimated scf accuracy    <       0.00000041 Ry

     The total energy is the sum of the following terms:

     one-electron contribution =   -4816.23934320 Ry
     hartree contribution      =    2428.09215126 Ry
     xc contribution           =    -112.31197959 Ry
     ewald contribution        =    2149.20603462 Ry
     smearing contrib. (-TS)   =      -0.00280972 Ry

     convergence has been achieved in   9 iterations

     Forces acting on atoms (cartesian axes, Ry/au):

     atom    1 type  1   force =     0.00050458    0.00088429    0.00062832
     atom    2 type  1   force =    -0.00007790   -0.00006268    0.00124692
     atom    3 type  1   force =    -0.00019284    0.00117709    0.00043451
     atom    4 type  1   force =     0.00122260   -0.00069945   -0.00414455
     atom    5 type  1   force =     0.00095943    0.00080022   -0.00404132
     atom    6 type  1   force =     0.00019284   -0.00117709    0.00043451
     atom    7 type  1   force =     0.00007790    0.00006268    0.00124692
     atom    8 type  1   force =     0.00033645   -0.00083317    0.00060904
     atom    9 type  1   force =    -0.00000066    0.00012983    0.00095885
     atom   10 type  1   force =    -0.00029156    0.00114982   -0.00174520
     atom   11 type  1   force =    -0.00025998    0.00126855   -0.00810263
     atom   12 type  1   force =    -0.00007602    0.00121225   -0.00988764
     atom   13 type  1   force =     0.00007602   -0.00121225   -0.00988764
     atom   14 type  1   force =    -0.00023102   -0.00125475   -0.00788821
     atom   15 type  1   force =    -0.00002996   -0.00116045   -0.00131032
     atom   16 type  1   force =     0.00000066   -0.00012983    0.00095885
     atom   17 type  1   force =    -0.00033645    0.00083317    0.00060904
     atom   18 type  1   force =     0.00002996    0.00116045   -0.00131032
     atom   19 type  1   force =     0.00023102    0.00125475   -0.00788821
     atom   20 type  1   force =    -0.00095943   -0.00080022   -0.00404132
     atom   21 type  1   force =    -0.00122260    0.00069945   -0.00414455
     atom   22 type  1   force =     0.00025998   -0.00126855   -0.00810263
     atom   23 type  1   force =     0.00029156   -0.00114982   -0.00174520
     atom   24 type  1   force =    -0.00050458   -0.00088429    0.00062832
     atom   25 type  1   force =     0.00315858   -0.00251198    0.00989950
     atom   26 type  1   force =    -0.00160808   -0.00326669    0.01212243
     atom   27 type  1   force =    -0.00369352   -0.00152289    0.01034023
     atom   28 type  1   force =    -0.00315858    0.00251198    0.00989950
     atom   29 type  1   force =     0.00160808    0.00326669    0.01212243
     atom   30 type  1   force =     0.00369352    0.00152289    0.01034023
     atom   31 type  2   force =    -0.00377485    0.00356130    0.00029611
     atom   32 type  2   force =     0.00140292    0.00500554    0.00005049
     atom   33 type  2   force =     0.00533367    0.00105768    0.00053346
     atom   34 type  2   force =     0.00377485   -0.00356130    0.00029611
     atom   35 type  2   force =    -0.00140292   -0.00500554    0.00005049
     atom   36 type  2   force =    -0.00533367   -0.00105768    0.00053346

     Total force =     0.039064     Total SCF correction =     0.001474

     BFGS Geometry Optimization

     number of scf cycles    =   1
     number of bfgs steps    =   0

     energy   new            =    -351.2559466281 Ry

     new trust radius        =       0.0126574321 bohr
     new conv_thr            =       0.0000010000 Ry


ATOMIC_POSITIONS (angstrom)
C        1.230267014   0.000467944   0.000332492
C       -0.000041225   0.710107662   0.000659841
C       -0.000102047   2.131045383   0.000229932
C        1.230646970   2.840193190  -0.002193199
C        1.230507709   4.261268446  -0.002138575
C        0.000102047   4.970362928   0.000229932
C        0.000041225   6.391300649   0.000659841
C        1.230178042   7.100967418   0.000322291
C        3.689999652   0.000068701   0.000507404
C        2.459845714   0.710749290  -0.000923521
C        2.459862423   2.131093780  -0.004287725
C        3.689959775   2.841204817  -0.005232313
C        3.690040225   4.260203494  -0.005232313
C        2.459877751   4.970321830  -0.004174263
C        2.459984145   6.390653398  -0.000693391
C        3.690000348   7.101339610   0.000507404
C        6.149821958   0.000440893   0.000322291
C        4.920015855   0.710754913  -0.000693391
C        4.920122249   2.131086481  -0.004174263
C        6.149492291   2.840139865  -0.002138575
C        6.149353030   4.261215121  -0.002193199
C        4.920137577   4.970314531  -0.004287725
C        4.920154286   6.390659021  -0.000923521
C        6.149732986   7.100940367   0.000332492
C        4.677986991   2.563059330   3.005238588
C        3.328291553   2.201795219   3.006414916
C        2.340865193   3.189040789   3.005471814
C        2.702013009   4.538348981   3.005238588
C        4.051708447   4.899613092   3.006414916
C        5.039134807   3.912367522   3.005471814
H        5.445592563   1.794998583   3.000156694
H        3.047472395   1.152778065   3.000026719
H        1.292247547   2.907993856   3.000282297
H        1.934407437   5.306409728   3.000156694
H        4.332527605   5.948630246   3.000026719
H        6.087752453   4.193414455   3.000282297



     Writing output data file batch_graph+benzene.save/
     NEW-OLD atomic charge density approx. for the potential

     negative rho (up, down):  2.105E-04 0.000E+00

     total cpu time spent up to now is      329.5 secs

     Self-consistent Calculation

     iteration #  1     ecut=    32.00 Ry     beta= 0.50
     Davidson diagonalization with overlap
     ethr =  1.00E-06,  avg # of iterations =  3.0

     negative rho (up, down):  2.107E-04 0.000E+00

     total cpu time spent up to now is      371.7 secs

     total energy              =    -351.25717953 Ry
     Harris-Foulkes estimate   =    -351.25729773 Ry
     estimated scf accuracy    <       0.00027687 Ry

     iteration #  2     ecut=    32.00 Ry     beta= 0.50
     Davidson diagonalization with overlap
     ethr =  2.20E-07,  avg # of iterations =  2.0

     negative rho (up, down):  2.108E-04 0.000E+00

     total cpu time spent up to now is      401.8 secs

     total energy              =    -351.25722114 Ry
     Harris-Foulkes estimate   =    -351.25722838 Ry
     estimated scf accuracy    <       0.00003284 Ry

     iteration #  3     ecut=    32.00 Ry     beta= 0.50
     Davidson diagonalization with overlap
     ethr =  2.61E-08,  avg # of iterations =  2.0

     negative rho (up, down):  2.113E-04 0.000E+00

     total cpu time spent up to now is      431.2 secs

     total energy              =    -351.25722559 Ry
     Harris-Foulkes estimate   =    -351.25722666 Ry
     estimated scf accuracy    <       0.00000727 Ry

     iteration #  4     ecut=    32.00 Ry     beta= 0.50
     Davidson diagonalization with overlap
     ethr =  5.77E-09,  avg # of iterations =  2.0

     negative rho (up, down):  2.114E-04 0.000E+00

     total cpu time spent up to now is      460.6 secs

     total energy              =    -351.25722671 Ry
     Harris-Foulkes estimate   =    -351.25722709 Ry
     estimated scf accuracy    <       0.00000183 Ry

     iteration #  5     ecut=    32.00 Ry     beta= 0.50
     Davidson diagonalization with overlap
     ethr =  1.45E-09,  avg # of iterations =  2.1

     negative rho (up, down):  2.108E-04 0.000E+00

     total cpu time spent up to now is      488.7 secs

     End of self-consistent calculation

          k = 0.0000 0.0000 0.0000 ( 31971 PWs)   bands (ev):

   -21.9189 -20.4648 -20.4618 -19.9902 -19.9833 -19.5294 -18.5753 -18.5742
   -18.5725 -18.5669 -16.8385 -16.8106 -16.7077 -15.6418 -15.0679 -15.0656
   -15.0631 -15.0605 -13.2695 -13.2421 -13.0892 -13.0876 -13.0862 -13.0843
   -12.9499 -12.9428 -11.3491 -10.2769 -10.2737 -10.0137  -9.9236  -9.9212
    -9.7124  -9.3053  -9.0932  -9.0911  -9.0845  -9.0818  -8.9483  -8.9083
    -8.9048  -8.7572  -8.6657  -8.3942  -8.2272  -7.8240  -7.7054  -7.5957
    -7.5944  -7.0278  -6.7921  -6.7825  -6.2085  -6.2051  -6.1281  -6.0669
    -5.6250  -5.6165  -4.9034  -4.4827  -4.3397  -2.3977  -2.3786  -2.3630
    -2.3462  -0.7238  -0.0435   0.4360   0.5559   0.6979   1.3521   1.3581
     1.3616   1.3790   1.5849   1.9864

          k = 0.0000 0.0722 0.0000 ( 31929 PWs)   bands (ev):

   -21.8272 -21.0964 -19.9025 -19.8938 -19.6668 -19.5233 -19.1837 -19.1755
   -17.8073 -17.8071 -17.5939 -16.8106 -16.8094 -15.9370 -15.9353 -14.6511
   -14.5364 -14.5347 -13.6906 -13.6878 -13.2571 -13.2377 -12.4280 -12.4261
   -12.3647 -12.3618 -11.5560 -11.3408 -10.7361 -10.7333 -10.1301 -10.1290
    -9.9138  -9.7136  -9.3048  -9.1102  -8.8578  -8.6709  -8.6656  -8.5977
    -8.5906  -8.4245  -8.4211  -8.3461  -8.1589  -7.7816  -7.6131  -7.4278
    -7.0879  -6.9495  -6.9008  -6.7835  -6.7024  -6.6527  -5.9814  -5.8158
    -5.4272  -5.3624  -5.2796  -4.4814  -4.4215  -3.3974  -3.3564  -1.3917
    -1.3894  -0.1152   0.0955   0.3727   0.4598   0.5527   0.6098   0.8277
     1.3083   1.7912   1.8626   2.2052

          k = 0.0000-0.1443 0.0000 ( 31940 PWs)   bands (ev):

   -21.5596 -21.5451 -19.6650 -19.6351 -19.6339 -19.6182 -19.4893 -18.6880
   -18.6863 -16.9368 -16.9223 -16.9100 -16.9062 -16.7992 -16.7801 -14.1617
   -14.1607 -14.1506 -14.1446 -13.2655 -13.2384 -13.1591 -13.1461 -11.5546
   -11.5519 -11.5457 -11.5417 -11.3414 -11.3324 -11.3292 -11.3247 -11.3126
    -9.7159  -9.6188  -9.6004  -9.3040  -8.6979  -8.6624  -8.5995  -8.5773
    -8.2917  -8.2862  -8.2793  -8.2762  -7.6241  -7.3340  -7.3329  -7.3218
    -6.9797  -6.9559  -6.9159  -6.7565  -6.7351  -6.3558  -6.3197  -6.3006
    -6.2280  -4.7385  -4.6089  -4.4066  -4.3864  -4.2979  -4.1303  -0.4986
    -0.4628  -0.4416  -0.4334   0.3371   0.4088   0.5384   0.8822   1.1966
     1.2541   1.4259   1.5161   2.0663

          k = 0.0833 0.0000 0.0000 ( 31951 PWs)   bands (ev):

   -21.7966 -20.8246 -20.3454 -20.3420 -19.5497 -19.3908 -19.3715 -18.9204
   -17.5656 -17.5644 -16.8250 -16.8199 -16.6166 -16.2787 -15.7922 -15.5408
   -14.8895 -14.6305 -14.6284 -14.1372 -13.2425 -13.2403 -12.4130 -12.1700
   -11.7167 -11.4964 -11.4958 -11.3121 -10.1857  -9.9487  -9.9469  -9.8791
    -9.7191  -9.4572  -9.3058  -9.1628  -9.1623  -8.9870  -8.9861  -8.8774
    -8.7547  -8.7329  -8.6010  -8.2300  -8.1072  -8.0505  -8.0492  -7.6672
    -7.2841  -7.0800  -6.8704  -6.7491  -6.7316  -6.4540  -6.0981  -5.8769
    -5.2542  -5.2510  -4.8025  -4.5196  -4.3108  -3.6544  -3.3646  -1.4191
    -1.1013  -0.7527  -0.0260  -0.0175   0.1684   0.4979   0.5340   0.8715
     1.5227   1.7422   2.1403   2.2096

          k = 0.0833 0.0722 0.0000 ( 31951 PWs)   bands (ev):

   -21.7050 -20.9755 -20.7341 -20.0160 -19.5734 -19.4960 -18.8331 -18.6021
   -18.1444 -17.4840 -16.8892 -16.8172 -16.8095 -16.6069 -16.2431 -15.1463
   -14.6569 -14.5600 -14.0433 -13.9216 -13.2417 -13.2400 -12.2272 -12.2148
   -11.9950 -11.7829 -11.5198 -11.3057 -10.7328 -10.3479  -9.7783  -9.7385
    -9.7140  -9.6902  -9.3660  -9.3045  -9.1590  -8.9884  -8.8261  -8.7751
    -8.6694  -8.6447  -8.5157  -8.4793  -8.1629  -7.8211  -7.5264  -7.3443
    -7.3384  -6.9690  -6.7770  -6.7527  -6.4354  -6.3965  -6.1500  -6.0510
    -5.7554  -5.2051  -4.7006  -4.5228  -4.4553  -3.9588  -3.7775  -1.0648
    -0.7386  -0.5517  -0.1214   0.2826   0.4779   0.5438   0.6858   1.0007
     1.4539   1.6224   1.6719   1.9235

          k = 0.0833-0.1443 0.0000 ( 31876 PWs)   bands (ev):

   -21.4378 -21.4233 -20.4699 -20.4569 -19.5343 -18.5822 -18.5735 -18.5712
   -18.5626 -17.6680 -17.6653 -16.8201 -16.8087 -16.3197 -16.3089 -15.2571
   -15.2565 -13.2498 -13.2449 -13.0941 -13.0885 -13.0795 -13.0780 -13.0157
   -13.0076 -11.4016 -11.3870 -11.2987 -10.7101 -10.7027  -9.9287  -9.9225
    -9.7208  -9.4895  -9.4576  -9.3055  -9.0998  -9.0917  -9.0823  -9.0799
    -8.7758  -8.7039  -8.3064  -8.2655  -7.5970  -7.5856  -7.2764  -7.2613
    -7.1095  -6.7856  -6.7706  -6.6147  -6.6057  -6.2272  -6.1571  -6.1430
    -6.1046  -5.2184  -5.1284  -4.5059  -4.3887  -4.1265  -4.1254  -0.9083
    -0.9045   0.3941   0.4102   0.4759   0.4926   0.5219   1.0629   1.3415
     1.3635   1.3824   1.3895   1.4039

          k =-0.1667 0.0000 0.0000 ( 31854 PWs)   bands (ev):

   -21.4333 -21.4280 -19.9949 -19.9888 -19.9848 -19.9782 -19.5182 -17.6691
   -17.6642 -16.8287 -16.8200 -16.7350 -16.7322 -16.3220 -16.3013 -15.6440
   -15.6408 -15.2572 -15.2523 -13.2529 -13.2244 -13.0145 -13.0072 -11.3940
   -11.3921 -11.2717 -10.7149 -10.7029 -10.2741 -10.2731 -10.2699 -10.2681
    -9.7296  -9.4831  -9.4708  -9.3064  -8.9471  -8.9455  -8.9148  -8.9127
    -8.9105  -8.9057  -8.7526  -8.7168  -7.9441  -7.7261  -7.7174  -7.7097
    -7.2824  -7.2652  -6.9147  -6.7573  -6.7290  -6.6067  -6.6031  -5.2392
    -5.1020  -4.7455  -4.7322  -4.7076  -4.4705  -4.1528  -3.9384  -0.9343
    -0.9068  -0.6595  -0.6407   0.2226   0.4481   0.5202   0.5769   0.7154
     0.8710   1.3691   1.4111   2.1939

          k =-0.1667 0.0722 0.0000 ( 31908 PWs)   bands (ev):

   -21.3420 -21.3368 -20.6156 -20.6116 -19.5372 -19.1887 -19.1735 -17.5871
   -17.5822 -17.1577 -17.1576 -16.9946 -16.9853 -16.8181 -16.7996 -15.2429
   -15.2418 -14.3114 -14.3048 -13.5704 -13.5656 -13.2412 -13.2222 -11.5185
   -11.5146 -11.2677 -10.8239 -10.8227 -10.6117 -10.5995  -9.7534  -9.7355
    -9.7209  -9.3875  -9.3667  -9.3070  -9.2584  -9.2514  -9.2154  -9.2149
    -8.7838  -8.7765  -8.4564  -8.4173  -7.9056  -7.9027  -7.6433  -7.6298
    -7.1934  -6.8637  -6.7871  -6.7050  -6.6452  -6.6417  -6.6322  -5.1950
    -5.0600  -4.9372  -4.8376  -4.7940  -4.7120  -4.4259  -4.2491  -0.5070
    -0.4992  -0.2911  -0.2538   0.1327   0.2717   0.5628   0.6144   0.6726
     0.9861   1.4987   1.5244   1.6916

          k =-0.1667-0.1443 0.0000 ( 31784 PWs)   bands (ev):

   -21.0772 -21.0695 -21.0602 -21.0581 -19.5324 -18.2364 -18.2315 -18.2260
   -18.2254 -17.3576 -17.3490 -17.3480 -17.3277 -16.8201 -16.8076 -14.4616
   -14.4540 -14.4520 -14.4431 -13.2456 -13.2244 -12.9225 -12.9182 -12.9147
   -12.9096 -11.2614 -10.3056 -10.2944 -10.2874 -10.2744  -9.9387  -9.9324
    -9.9157  -9.9066  -9.7306  -9.3067  -9.1349  -9.1182  -9.0772  -8.9929
    -8.6589  -8.6264  -8.3836  -8.3809  -8.3735  -8.3712  -7.0899  -7.0610
    -7.0572  -7.0515  -7.0466  -6.7736  -6.7454  -5.9023  -5.7733  -5.7420
    -5.6951  -5.1102  -4.9592  -4.9449  -4.9084  -4.4059  -4.3814  -0.2275
    -0.1521  -0.1009  -0.0979   0.4982   0.5446   0.7747   1.0394   1.0734
     1.0751   1.1450   1.1748   1.3945

          k =-0.0833 0.0722 0.0000 ( 31951 PWs)   bands (ev):

   -21.7050 -20.9755 -20.7341 -20.0160 -19.5735 -19.4958 -18.8331 -18.6021
   -18.1444 -17.4840 -16.8905 -16.8172 -16.8083 -16.6069 -16.2429 -15.1463
   -14.6572 -14.5602 -14.0431 -13.9218 -13.2410 -13.2401 -12.2275 -12.2152
   -11.9949 -11.7828 -11.5201 -11.3055 -10.7326 -10.3476  -9.7781  -9.7379
    -9.7180  -9.6884  -9.3649  -9.3049  -9.1594  -8.9880  -8.8265  -8.7751
    -8.6710  -8.6438  -8.5116  -8.4799  -8.1632  -7.8154  -7.5264  -7.3474
    -7.3430  -6.9811  -6.7852  -6.7431  -6.4352  -6.3820  -6.1494  -6.0512
    -5.7539  -5.2092  -4.7072  -4.5206  -4.4538  -3.9565  -3.7754  -1.0693
    -0.7366  -0.5550  -0.1276   0.2743   0.4841   0.5540   0.6930   1.0002
     1.4389   1.5794   1.6786   1.9357

     the Fermi energy is    -2.3714 ev

!    total energy              =    -351.25722697 Ry
     Harris-Foulkes estimate   =    -351.25722714 Ry
     estimated scf accuracy    <       0.00000027 Ry

     The total energy is the sum of the following terms:

     one-electron contribution =   -4813.21177484 Ry
     hartree contribution      =    2426.57175481 Ry
     xc contribution           =    -112.31781123 Ry
     ewald contribution        =    2147.70341150 Ry
     smearing contrib. (-TS)   =      -0.00280722 Ry

     convergence has been achieved in   5 iterations

     Forces acting on atoms (cartesian axes, Ry/au):

     atom    1 type  1   force =     0.00011870   -0.00020645    0.00059178
     atom    2 type  1   force =    -0.00007593    0.00076344    0.00195492
     atom    3 type  1   force =    -0.00004588    0.00095002    0.00014337
     atom    4 type  1   force =    -0.00036083    0.00107308   -0.00412192
     atom    5 type  1   force =    -0.00006480   -0.00111565   -0.00403404
     atom    6 type  1   force =     0.00004588   -0.00095002    0.00014337
     atom    7 type  1   force =     0.00007593   -0.00076344    0.00195492
     atom    8 type  1   force =     0.00034494    0.00022591    0.00064982
     atom    9 type  1   force =    -0.00010328    0.00062234    0.00131423
     atom   10 type  1   force =     0.00026769    0.00044423   -0.00192231
     atom   11 type  1   force =     0.00058716    0.00023358   -0.00724809
     atom   12 type  1   force =     0.00005042    0.00009327   -0.01000411
     atom   13 type  1   force =    -0.00005042   -0.00009327   -0.01000411
     atom   14 type  1   force =     0.00065173   -0.00021182   -0.00704731
     atom   15 type  1   force =     0.00016938   -0.00043600   -0.00161668
     atom   16 type  1   force =     0.00010328   -0.00062234    0.00131423
     atom   17 type  1   force =    -0.00034494   -0.00022591    0.00064982
     atom   18 type  1   force =    -0.00016938    0.00043600   -0.00161668
     atom   19 type  1   force =    -0.00065173    0.00021182   -0.00704731
     atom   20 type  1   force =     0.00006480    0.00111565   -0.00403404
     atom   21 type  1   force =     0.00036083   -0.00107308   -0.00412192
     atom   22 type  1   force =    -0.00058716   -0.00023358   -0.00724809
     atom   23 type  1   force =    -0.00026769   -0.00044423   -0.00192231
     atom   24 type  1   force =    -0.00011870    0.00020645    0.00059178
     atom   25 type  1   force =    -0.00427098    0.00418623    0.00939599
     atom   26 type  1   force =     0.00214774    0.00505366    0.01070013
     atom   27 type  1   force =     0.00488314    0.00179551    0.00969566
     atom   28 type  1   force =     0.00427098   -0.00418623    0.00939599
     atom   29 type  1   force =    -0.00214774   -0.00505366    0.01070013
     atom   30 type  1   force =    -0.00488314   -0.00179551    0.00969566
     atom   31 type  2   force =     0.00047118   -0.00062068    0.00043735
     atom   32 type  2   force =    -0.00012790   -0.00051634    0.00041586
     atom   33 type  2   force =    -0.00060913   -0.00055621    0.00069537
     atom   34 type  2   force =    -0.00047118    0.00062068    0.00043735
     atom   35 type  2   force =     0.00012790    0.00051634    0.00041586
     atom   36 type  2   force =     0.00060913    0.00055621    0.00069537

     Total force =     0.035956     Total SCF correction =     0.001371

     number of scf cycles    =   2
     number of bfgs steps    =   1

     energy   old            =    -351.2559466281 Ry
     energy   new            =    -351.2572269743 Ry

     CASE: energy  _new < energy  _old

     new trust radius        =       0.0139231753 bohr
     new conv_thr            =       0.0000010000 Ry


ATOMIC_POSITIONS (angstrom)
C        1.230478606   0.000718500   0.000724792
C       -0.000090608   0.710307171   0.001664842
C       -0.000183063   2.131734291   0.000424078
C        1.230971506   2.840258982  -0.004844271
C        1.230825747   4.261225680  -0.004727906
C        0.000183063   4.969674020   0.000424078
C        0.000090608   6.391101140   0.001664842
C        1.230396251   7.100740457   0.000724663
C        3.689969453   0.000294856   0.001225369
C        2.459821024   0.711281867  -0.002093998
C        2.459941516   2.131606919  -0.009235482
C        3.689947717   2.841657479  -0.011606428
C        3.690052283   4.259750833  -0.011606428
C        2.459985746   4.969819848  -0.008988486
C        2.460022774   6.390119479  -0.001622510
C        3.690030547   7.101113455   0.001225369
C        6.149603749   0.000667854   0.000724663
C        4.919977226   0.711288832  -0.001622510
C        4.920014254   2.131588463  -0.008988486
C        6.149174253   2.840182631  -0.004727906
C        6.149028494   4.261149329  -0.004844271
C        4.920058484   4.969801392  -0.009235482
C        4.920178976   6.390126444  -0.002093998
C        6.149521394   7.100689811   0.000724792
C        4.677856670   2.563392071   3.011440416
C        3.328350161   2.202114684   3.013775580
C        2.340985325   3.189027106   3.011915328
C        2.702143330   4.538016240   3.011440416
C        4.051649839   4.899293627   3.013775580
C        5.039014675   3.912381205   3.011915328
H        5.444403994   1.796068800   3.000387551
H        3.047927826   1.154385603   3.000165110
H        1.293943363   2.908203802   3.000671351
H        1.935596006   5.305339511   3.000387551
H        4.332072174   5.947022708   3.000165110
H        6.086056637   4.193204509   3.000671351



     Writing output data file batch_graph+benzene.save/
     NEW-OLD atomic charge density approx. for the potential

     negative rho (up, down):  2.106E-04 0.000E+00

     total cpu time spent up to now is      503.6 secs

     Self-consistent Calculation

     iteration #  1     ecut=    32.00 Ry     beta= 0.50
     Davidson diagonalization with overlap
     ethr =  1.00E-06,  avg # of iterations =  3.0

     negative rho (up, down):  2.107E-04 0.000E+00

     total cpu time spent up to now is      546.8 secs

     total energy              =    -351.25846112 Ry
     Harris-Foulkes estimate   =    -351.25860351 Ry
     estimated scf accuracy    <       0.00032094 Ry

     iteration #  2     ecut=    32.00 Ry     beta= 0.50
     Davidson diagonalization with overlap
     ethr =  2.55E-07,  avg # of iterations =  2.0

     negative rho (up, down):  2.111E-04 0.000E+00

     total cpu time spent up to now is      577.5 secs

     total energy              =    -351.25851736 Ry
     Harris-Foulkes estimate   =    -351.25852571 Ry
     estimated scf accuracy    <       0.00003702 Ry

     iteration #  3     ecut=    32.00 Ry     beta= 0.50
     Davidson diagonalization with overlap
     ethr =  2.94E-08,  avg # of iterations =  2.0

     negative rho (up, down):  2.114E-04 0.000E+00

     total cpu time spent up to now is      607.2 secs

     total energy              =    -351.25852313 Ry
     Harris-Foulkes estimate   =    -351.25852357 Ry
     estimated scf accuracy    <       0.00000755 Ry

     iteration #  4     ecut=    32.00 Ry     beta= 0.50
     Davidson diagonalization with overlap
     ethr =  5.99E-09,  avg # of iterations =  2.0

     negative rho (up, down):  2.119E-04 0.000E+00

     total cpu time spent up to now is      636.7 secs

     total energy              =    -351.25852418 Ry
     Harris-Foulkes estimate   =    -351.25852432 Ry
     estimated scf accuracy    <       0.00000136 Ry

     iteration #  5     ecut=    32.00 Ry     beta= 0.50
     Davidson diagonalization with overlap
     ethr =  1.08E-09,  avg # of iterations =  2.2

     negative rho (up, down):  2.109E-04 0.000E+00

     total cpu time spent up to now is      665.4 secs

     End of self-consistent calculation

          k = 0.0000 0.0000 0.0000 ( 31971 PWs)   bands (ev):

   -21.9221 -20.4683 -20.4648 -19.9921 -19.9876 -19.5324 -18.5785 -18.5770
   -18.5768 -18.5704 -16.8396 -16.8145 -16.7126 -15.6444 -15.0732 -15.0686
   -15.0659 -15.0634 -13.2733 -13.2461 -13.0933 -13.0916 -13.0898 -13.0875
   -12.9539 -12.9466 -11.3558 -10.2820 -10.2776 -10.0155  -9.9259  -9.9243
    -9.7195  -9.3057  -9.0944  -9.0941  -9.0885  -9.0865  -8.9525  -8.9112
    -8.9073  -8.7602  -8.6714  -8.3930  -8.2289  -7.8244  -7.7083  -7.6000
    -7.5993  -7.0366  -6.7939  -6.7843  -6.2097  -6.2049  -6.1320  -6.0739
    -5.6302  -5.6186  -4.9019  -4.4877  -4.3489  -2.4016  -2.3816  -2.3652
    -2.3508  -0.7243  -0.0400   0.4364   0.5549   0.6958   1.3463   1.3542
     1.3589   1.3760   1.5851   1.9884

          k = 0.0000 0.0722 0.0000 ( 31929 PWs)   bands (ev):

   -21.8304 -21.0997 -19.9043 -19.8981 -19.6694 -19.5266 -19.1881 -19.1785
   -17.8117 -17.8094 -17.5973 -16.8146 -16.8116 -15.9414 -15.9379 -14.6540
   -14.5400 -14.5383 -13.6946 -13.6911 -13.2615 -13.2419 -12.4318 -12.4291
   -12.3690 -12.3653 -11.5588 -11.3477 -10.7408 -10.7368 -10.1331 -10.1327
    -9.9154  -9.7207  -9.3052  -9.1116  -8.8619  -8.6729  -8.6710  -8.6006
    -8.5937  -8.4273  -8.4247  -8.3490  -8.1634  -7.7799  -7.6159  -7.4294
    -7.0915  -6.9542  -6.9034  -6.7860  -6.7041  -6.6623  -5.9837  -5.8209
    -5.4253  -5.3649  -5.2835  -4.4864  -4.4282  -3.4006  -3.3610  -1.3947
    -1.3930  -0.1142   0.0987   0.3713   0.4567   0.5515   0.6050   0.8256
     1.3108   1.7920   1.8612   2.2046

          k = 0.0000-0.1443 0.0000 ( 31940 PWs)   bands (ev):

   -21.5598 -21.5515 -19.6676 -19.6350 -19.6342 -19.6258 -19.4949 -18.6921
   -18.6891 -16.9369 -16.9262 -16.9134 -16.9106 -16.8038 -16.7838 -14.1622
   -14.1612 -14.1578 -14.1510 -13.2695 -13.2425 -13.1600 -13.1517 -11.5582
   -11.5552 -11.5510 -11.5452 -11.3470 -11.3328 -11.3311 -11.3310 -11.3189
    -9.7230  -9.6211  -9.6010  -9.3044  -8.7000  -8.6679  -8.5994  -8.5863
    -8.2932  -8.2893  -8.2839  -8.2797  -7.6226  -7.3370  -7.3355  -7.3213
    -6.9819  -6.9581  -6.9240  -6.7610  -6.7381  -6.3562  -6.3223  -6.3078
    -6.2338  -4.7359  -4.6107  -4.4096  -4.3903  -4.3039  -4.1404  -0.5026
    -0.4647  -0.4443  -0.4376   0.3390   0.4103   0.5377   0.8847   1.1947
     1.2545   1.4235   1.5106   2.0674

          k = 0.0833 0.0000 0.0000 ( 31951 PWs)   bands (ev):

   -21.7998 -20.8278 -20.3488 -20.3450 -19.5515 -19.3938 -19.3762 -18.9238
   -17.5686 -17.5681 -16.8267 -16.8234 -16.6212 -16.2821 -15.7963 -15.5433
   -14.8920 -14.6339 -14.6325 -14.1413 -13.2469 -13.2446 -12.4160 -12.1740
   -11.7211 -11.5000 -11.4995 -11.3191 -10.1884  -9.9511  -9.9502  -9.8805
    -9.7262  -9.4613  -9.3062  -9.1663  -9.1656  -8.9900  -8.9898  -8.8806
    -8.7592  -8.7361  -8.6034  -8.2302  -8.1090  -8.0546  -8.0541  -7.6697
    -7.2860  -7.0820  -6.8777  -6.7525  -6.7338  -6.4589  -6.1032  -5.8791
    -5.2559  -5.2528  -4.8005  -4.5240  -4.3195  -3.6580  -3.3705  -1.4215
    -1.1044  -0.7536  -0.0300  -0.0208   0.1708   0.4974   0.5325   0.8694
     1.5249   1.7431   2.1387   2.2085

          k = 0.0833 0.0722 0.0000 ( 31951 PWs)   bands (ev):

   -21.7082 -20.9787 -20.7373 -20.0191 -19.5752 -19.5003 -18.8365 -18.6055
   -18.1478 -17.4873 -16.8919 -16.8210 -16.8121 -16.6109 -16.2465 -15.1501
   -14.6609 -14.5629 -14.0463 -13.9254 -13.2463 -13.2441 -12.2313 -12.2181
   -11.9991 -11.7860 -11.5227 -11.3127 -10.7365 -10.3515  -9.7798  -9.7418
    -9.7202  -9.6940  -9.3699  -9.3051  -9.1634  -8.9900  -8.8295  -8.7783
    -8.6717  -8.6491  -8.5181  -8.4822  -8.1663  -7.8215  -7.5292  -7.3488
    -7.3396  -6.9790  -6.7791  -6.7542  -6.4393  -6.3995  -6.1526  -6.0544
    -5.7582  -5.2053  -4.7023  -4.5271  -4.4603  -3.9662  -3.7810  -1.0684
    -0.7412  -0.5559  -0.1216   0.2852   0.4789   0.5426   0.6801   0.9985
     1.4561   1.6247   1.6690   1.9198

          k = 0.0833-0.1443 0.0000 ( 31876 PWs)   bands (ev):

   -21.4379 -21.4297 -20.4700 -20.4632 -19.5370 -18.5822 -18.5775 -18.5741
   -18.5695 -17.6719 -17.6681 -16.8240 -16.8110 -16.3207 -16.3143 -15.2620
   -15.2597 -13.2538 -13.2487 -13.0979 -13.0895 -13.0844 -13.0825 -13.0164
   -13.0134 -11.4022 -11.3942 -11.3058 -10.7113 -10.7079  -9.9320  -9.9270
    -9.7280  -9.4917  -9.4582  -9.3059  -9.0999  -9.0933  -9.0889  -9.0863
    -8.7806  -8.7062  -8.3086  -8.2659  -7.5999  -7.5891  -7.2794  -7.2642
    -7.1174  -6.7879  -6.7717  -6.6174  -6.6118  -6.2270  -6.1597  -6.1455
    -6.1102  -5.2180  -5.1319  -4.5106  -4.3961  -4.1299  -4.1296  -0.9115
    -0.9093   0.3949   0.4096   0.4752   0.4921   0.5215   1.0645   1.3390
     1.3592   1.3794   1.3853   1.4025

          k =-0.1667 0.0000 0.0000 ( 31854 PWs)   bands (ev):

   -21.4357 -21.4319 -19.9985 -19.9910 -19.9875 -19.9821 -19.5219 -17.6722
   -17.6677 -16.8325 -16.8215 -16.7378 -16.7360 -16.3253 -16.3064 -15.6477
   -15.6451 -15.2579 -15.2568 -13.2566 -13.2289 -13.0188 -13.0119 -11.3969
   -11.3947 -11.2789 -10.7196 -10.7063 -10.2789 -10.2758 -10.2736 -10.2695
    -9.7368  -9.4837  -9.4732  -9.3067  -8.9496  -8.9489  -8.9204  -8.9177
    -8.9144  -8.9083  -8.7570  -8.7196  -7.9412  -7.7286  -7.7186  -7.7123
    -7.2888  -7.2687  -6.9286  -6.7584  -6.7319  -6.6073  -6.6071  -5.2382
    -5.1050  -4.7478  -4.7359  -4.7040  -4.4765  -4.1569  -3.9495  -0.9369
    -0.9077  -0.6635  -0.6465   0.2271   0.4443   0.5207   0.5787   0.7056
     0.8738   1.3670   1.4094   2.1954

          k =-0.1667 0.0722 0.0000 ( 31908 PWs)   bands (ev):

   -21.3445 -21.3407 -20.6182 -20.6156 -19.5397 -19.1912 -19.1782 -17.5902
   -17.5856 -17.1614 -17.1602 -16.9972 -16.9891 -16.8225 -16.8025 -15.2467
   -15.2458 -14.3127 -14.3093 -13.5739 -13.5696 -13.2458 -13.2267 -11.5198
   -11.5192 -11.2750 -10.8267 -10.8259 -10.6163 -10.6030  -9.7587  -9.7393
    -9.7276  -9.3880  -9.3694  -9.3073  -9.2633  -9.2535  -9.2185  -9.2182
    -8.7865  -8.7799  -8.4565  -8.4202  -7.9106  -7.9049  -7.6491  -7.6328
    -7.1970  -6.8661  -6.7918  -6.7072  -6.6512  -6.6428  -6.6368  -5.1938
    -5.0623  -4.9344  -4.8395  -4.7978  -4.7156  -4.4328  -4.2605  -0.5110
    -0.5039  -0.2932  -0.2553   0.1346   0.2680   0.5625   0.6090   0.6716
     0.9889   1.4961   1.5225   1.6949

          k =-0.1667-0.1443 0.0000 ( 31784 PWs)   bands (ev):

   -21.0768 -21.0701 -21.0656 -21.0655 -19.5351 -18.2390 -18.2338 -18.2313
   -18.2287 -17.3565 -17.3529 -17.3500 -17.3360 -16.8244 -16.8100 -14.4642
   -14.4569 -14.4566 -14.4481 -13.2499 -13.2287 -12.9222 -12.9213 -12.9168
   -12.9168 -11.2687 -10.3063 -10.2962 -10.2938 -10.2821  -9.9395  -9.9359
    -9.9180  -9.9128  -9.7378  -9.3071  -9.1348  -9.1227  -9.0785  -8.9932
    -8.6634  -8.6281  -8.3880  -8.3870  -8.3755  -8.3742  -7.0983  -7.0662
    -7.0596  -7.0523  -7.0521  -6.7747  -6.7479  -5.8992  -5.7754  -5.7455
    -5.7009  -5.1090  -4.9587  -4.9469  -4.9156  -4.4133  -4.3900  -0.2260
    -0.1557  -0.1069  -0.1023   0.5001   0.5397   0.7759   1.0374   1.0709
     1.0730   1.1397   1.1773   1.3972

          k =-0.0833 0.0722 0.0000 ( 31951 PWs)   bands (ev):

   -21.7082 -20.9787 -20.7373 -20.0191 -19.5754 -19.5001 -18.8365 -18.6055
   -18.1478 -17.4873 -16.8930 -16.8213 -16.8107 -16.6108 -16.2463 -15.1502
   -14.6611 -14.5631 -14.0461 -13.9255 -13.2455 -13.2443 -12.2316 -12.2184
   -11.9991 -11.7860 -11.5230 -11.3125 -10.7364 -10.3513  -9.7797  -9.7412
    -9.7240  -9.6924  -9.3690  -9.3053  -9.1637  -8.9896  -8.8301  -8.7784
    -8.6725  -8.6483  -8.5146  -8.4828  -8.1665  -7.8159  -7.5294  -7.3501
    -7.3461  -6.9905  -6.7864  -6.7461  -6.4393  -6.3853  -6.1519  -6.0545
    -5.7567  -5.2093  -4.7086  -4.5248  -4.4592  -3.9639  -3.7790  -1.0726
    -0.7393  -0.5592  -0.1276   0.2769   0.4845   0.5526   0.6873   0.9980
     1.4413   1.5813   1.6766   1.9316

     the Fermi energy is    -2.3748 ev

!    total energy              =    -351.25852435 Ry
     Harris-Foulkes estimate   =    -351.25852451 Ry
     estimated scf accuracy    <       0.00000030 Ry

     The total energy is the sum of the following terms:

     one-electron contribution =   -4809.89984281 Ry
     hartree contribution      =    2424.90415064 Ry
     xc contribution           =    -112.32250704 Ry
     ewald contribution        =    2146.06248223 Ry
     smearing contrib. (-TS)   =      -0.00280737 Ry

     convergence has been achieved in   5 iterations

     Forces acting on atoms (cartesian axes, Ry/au):

     atom    1 type  1   force =    -0.00027669   -0.00054415    0.00059693
     atom    2 type  1   force =    -0.00004133    0.00132913    0.00207982
     atom    3 type  1   force =     0.00011327    0.00018687   -0.00044306
     atom    4 type  1   force =    -0.00101249    0.00136890   -0.00408794
     atom    5 type  1   force =    -0.00053349   -0.00149582   -0.00400600
     atom    6 type  1   force =    -0.00011327   -0.00018687   -0.00044306
     atom    7 type  1   force =     0.00004133   -0.00132913    0.00207982
     atom    8 type  1   force =     0.00007104    0.00056154    0.00072028
     atom    9 type  1   force =    -0.00012564    0.00072831    0.00133455
     atom   10 type  1   force =     0.00053616   -0.00009336   -0.00202600
     atom   11 type  1   force =     0.00067660   -0.00036189   -0.00639509
     atom   12 type  1   force =     0.00007345   -0.00100300   -0.00908058
     atom   13 type  1   force =    -0.00007345    0.00100300   -0.00908058
     atom   14 type  1   force =     0.00075833    0.00038318   -0.00622393
     atom   15 type  1   force =     0.00037570    0.00012775   -0.00183989
     atom   16 type  1   force =     0.00012564   -0.00072831    0.00133455
     atom   17 type  1   force =    -0.00007104   -0.00056154    0.00072028
     atom   18 type  1   force =    -0.00037570   -0.00012775   -0.00183989
     atom   19 type  1   force =    -0.00075833   -0.00038318   -0.00622393
     atom   20 type  1   force =     0.00053349    0.00149582   -0.00400600
     atom   21 type  1   force =     0.00101249   -0.00136890   -0.00408794
     atom   22 type  1   force =    -0.00067660    0.00036189   -0.00639509
     atom   23 type  1   force =    -0.00053616    0.00009336   -0.00202600
     atom   24 type  1   force =     0.00027669    0.00054415    0.00059693
     atom   25 type  1   force =    -0.00509254    0.00471794    0.00882810
     atom   26 type  1   force =     0.00255205    0.00604679    0.00921297
     atom   27 type  1   force =     0.00629356    0.00215150    0.00898072
     atom   28 type  1   force =     0.00509254   -0.00471794    0.00882810
     atom   29 type  1   force =    -0.00255205   -0.00604679    0.00921297
     atom   30 type  1   force =    -0.00629356   -0.00215150    0.00898072
     atom   31 type  2   force =     0.00161412   -0.00172518    0.00062901
     atom   32 type  2   force =    -0.00053604   -0.00212810    0.00081767
     atom   33 type  2   force =    -0.00253296   -0.00104025    0.00090245
     atom   34 type  2   force =    -0.00161412    0.00172518    0.00062901
     atom   35 type  2   force =     0.00053604    0.00212810    0.00081767
     atom   36 type  2   force =     0.00253296    0.00104025    0.00090245

     Total force =     0.035200     Total SCF correction =     0.001428

     number of scf cycles    =   3
     number of bfgs steps    =   2

     energy   old            =    -351.2572269743 Ry
     energy   new            =    -351.2585243529 Ry

     CASE: energy  _new < energy  _old

     new trust radius        =       0.0208847630 bohr
     new conv_thr            =       0.0000009213 Ry


ATOMIC_POSITIONS (angstrom)
C        1.230538767   0.000928734   0.001376013
C       -0.000144785   0.711031091   0.003374400
C       -0.000199968   2.132281712   0.000300253
C        1.231085666   2.840496651  -0.009178164
C        1.231040376   4.260968016  -0.008964050
C        0.000199968   4.969126599   0.000300253
C        0.000144785   6.390377220   0.003374400
C        1.230539758   7.100569219   0.001439195
C        3.689908199   0.000721349   0.002401329
C        2.459958630   0.711776804  -0.004089724
C        2.460092719   2.132043550  -0.016751675
C        3.689938640   2.841606766  -0.021356557
C        3.690061360   4.259801545  -0.021356557
C        2.460195872   4.969400736  -0.016307555
C        2.460236569   6.389641756  -0.003307621
C        3.690091801   7.100686962   0.002401329
C        6.149460242   0.000839092   0.001439195
C        4.919763431   0.711766555  -0.003307621
C        4.919804128   2.132007575  -0.016307555
C        6.148959624   2.840440295  -0.008964050
C        6.148914334   4.260911660  -0.009178164
C        4.919907281   4.969364761  -0.016751675
C        4.920041370   6.389631507  -0.004089724
C        6.149461233   7.100479577   0.001376013
C        4.677427762   2.563968801   3.021222017
C        3.328546388   2.202937632   3.024794892
C        2.341792944   3.189091867   3.021987168
C        2.702572238   4.537439510   3.021222017
C        4.051453612   4.898470679   3.024794892
C        5.038207056   3.912316444   3.021987168
H        5.443100372   1.797204249   3.000909300
H        3.048445160   1.156084269   3.000686657
H        1.295566785   2.908262757   3.001464122
H        1.936899628   5.304204062   3.000909300
H        4.331554840   5.945324042   3.000686657
H        6.084433215   4.193145554   3.001464122



     Writing output data file batch_graph+benzene.save/
     NEW-OLD atomic charge density approx. for the potential

     negative rho (up, down):  2.109E-04 0.000E+00

     total cpu time spent up to now is      680.3 secs

     Self-consistent Calculation

     iteration #  1     ecut=    32.00 Ry     beta= 0.50
     Davidson diagonalization with overlap
     ethr =  1.00E-06,  avg # of iterations =  4.0

     negative rho (up, down):  2.109E-04 0.000E+00

     total cpu time spent up to now is      730.2 secs

     total energy              =    -351.26017809 Ry
     Harris-Foulkes estimate   =    -351.26051793 Ry
     estimated scf accuracy    <       0.00076117 Ry

     iteration #  2     ecut=    32.00 Ry     beta= 0.50
     Davidson diagonalization with overlap
     ethr =  6.04E-07,  avg # of iterations =  2.0

     negative rho (up, down):  2.119E-04 0.000E+00

     total cpu time spent up to now is      760.5 secs

     total energy              =    -351.26030924 Ry
     Harris-Foulkes estimate   =    -351.26033365 Ry
     estimated scf accuracy    <       0.00009534 Ry

     iteration #  3     ecut=    32.00 Ry     beta= 0.50
     Davidson diagonalization with overlap
     ethr =  7.57E-08,  avg # of iterations =  2.0

     negative rho (up, down):  2.112E-04 0.000E+00

     total cpu time spent up to now is      790.7 secs

     total energy              =    -351.26032389 Ry
     Harris-Foulkes estimate   =    -351.26032776 Ry
     estimated scf accuracy    <       0.00002279 Ry

     iteration #  4     ecut=    32.00 Ry     beta= 0.50
     Davidson diagonalization with overlap
     ethr =  1.81E-08,  avg # of iterations =  2.2

     negative rho (up, down):  2.125E-04 0.000E+00

     total cpu time spent up to now is      819.8 secs

     total energy              =    -351.26032743 Ry
     Harris-Foulkes estimate   =    -351.26032882 Ry
     estimated scf accuracy    <       0.00000643 Ry

     iteration #  5     ecut=    32.00 Ry     beta= 0.50
     Davidson diagonalization with overlap
     ethr =  5.11E-09,  avg # of iterations =  2.2

     negative rho (up, down):  2.110E-04 0.000E+00

     total cpu time spent up to now is      848.2 secs

     End of self-consistent calculation

          k = 0.0000 0.0000 0.0000 ( 31971 PWs)   bands (ev):

   -21.9269 -20.4722 -20.4703 -19.9965 -19.9924 -19.5419 -18.5834 -18.5829
   -18.5820 -18.5744 -16.8426 -16.8193 -16.7197 -15.6493 -15.0780 -15.0729
   -15.0715 -15.0691 -13.2747 -13.2500 -13.0996 -13.0955 -13.0954 -13.0928
   -12.9588 -12.9523 -11.3625 -10.2869 -10.2833 -10.0182  -9.9315  -9.9283
    -9.7190  -9.3098  -9.0995  -9.0987  -9.0933  -9.0930  -8.9578  -8.9156
    -8.9127  -8.7637  -8.6749  -8.3912  -8.2316  -7.8265  -7.7111  -7.6058
    -7.6043  -7.0531  -6.7945  -6.7832  -6.2115  -6.2074  -6.1361  -6.0824
    -5.6357  -5.6237  -4.9002  -4.4957  -4.3632  -2.4045  -2.3856  -2.3708
    -2.3586  -0.7261  -0.0374   0.4393   0.5546   0.6927   1.3414   1.3486
     1.3535   1.3695   1.5847   1.9908

          k = 0.0000 0.0722 0.0000 ( 31929 PWs)   bands (ev):

   -21.8351 -21.1044 -19.9086 -19.9029 -19.6737 -19.5360 -19.1930 -19.1842
   -17.8166 -17.8143 -17.6020 -16.8199 -16.8163 -15.9465 -15.9430 -14.6590
   -14.5448 -14.5436 -13.6994 -13.6964 -13.2637 -13.2462 -12.4368 -12.4343
   -12.3739 -12.3709 -11.5639 -11.3545 -10.7457 -10.7425 -10.1384 -10.1377
    -9.9175  -9.7201  -9.3093  -9.1139  -8.8672  -8.6751  -8.6738  -8.6053
    -8.5996  -8.4321  -8.4303  -8.3542  -8.1689  -7.7787  -7.6187  -7.4328
    -7.1000  -6.9596  -6.9062  -6.7858  -6.7055  -6.6761  -5.9888  -5.8265
    -5.4236  -5.3677  -5.2889  -4.4944  -4.4399  -3.4047  -3.3684  -1.3993
    -1.3982  -0.1132   0.1014   0.3704   0.4513   0.5510   0.5993   0.8225
     1.3135   1.7912   1.8593   2.2038

          k = 0.0000-0.1443 0.0000 ( 31940 PWs)   bands (ev):

   -21.5633 -21.5573 -19.6715 -19.6385 -19.6377 -19.6320 -19.5061 -18.6982
   -18.6929 -16.9389 -16.9313 -16.9192 -16.9146 -16.8098 -16.7907 -14.1659
   -14.1644 -14.1641 -14.1582 -13.2713 -13.2467 -13.1633 -13.1590 -11.5633
   -11.5609 -11.5556 -11.5505 -11.3530 -11.3376 -11.3362 -11.3350 -11.3264
    -9.7224  -9.6215  -9.6046  -9.3086  -8.7021  -8.6708  -8.6022  -8.5946
    -8.2978  -8.2950  -8.2887  -8.2855  -7.6211  -7.3393  -7.3389  -7.3246
    -6.9885  -6.9610  -6.9373  -6.7652  -6.7396  -6.3556  -6.3271  -6.3140
    -6.2423  -4.7337  -4.6140  -4.4124  -4.3961  -4.3129  -4.1569  -0.5060
    -0.4685  -0.4494  -0.4438   0.3401   0.4154   0.5379   0.8867   1.1914
     1.2554   1.4176   1.5027   2.0667

          k = 0.0833 0.0000 0.0000 ( 31951 PWs)   bands (ev):

   -21.8045 -20.8325 -20.3527 -20.3504 -19.5589 -19.3993 -19.3823 -18.9288
   -17.5741 -17.5723 -16.8312 -16.8275 -16.6274 -16.2873 -15.8016 -15.5482
   -14.8969 -14.6395 -14.6372 -14.1464 -13.2495 -13.2486 -12.4209 -12.1792
   -11.7264 -11.5054 -11.5044 -11.3261 -10.1934  -9.9568  -9.9553  -9.8820
    -9.7255  -9.4665  -9.3103  -9.1715  -9.1708  -8.9958  -8.9944  -8.8831
    -8.7643  -8.7396  -8.6045  -8.2303  -8.1119  -8.0605  -8.0592  -7.6749
    -7.2908  -7.0857  -6.8876  -6.7536  -6.7360  -6.4659  -6.1088  -5.8842
    -5.2588  -5.2558  -4.7986  -4.5308  -4.3326  -3.6639  -3.3782  -1.4261
    -1.1083  -0.7562  -0.0344  -0.0261   0.1723   0.4988   0.5317   0.8665
     1.5269   1.7436   2.1366   2.2071

          k = 0.0833 0.0722 0.0000 ( 31951 PWs)   bands (ev):

   -21.7129 -20.9835 -20.7420 -20.0237 -19.5806 -19.5090 -18.8415 -18.6105
   -18.1528 -17.4920 -16.8962 -16.8259 -16.8171 -16.6167 -16.2516 -15.1553
   -14.6660 -14.5679 -14.0513 -13.9304 -13.2505 -13.2465 -12.2366 -12.2232
   -12.0044 -11.7911 -11.5278 -11.3198 -10.7418 -10.3567  -9.7820  -9.7452
    -9.7215  -9.6987  -9.3750  -9.3094  -9.1688  -8.9924  -8.8316  -8.7835
    -8.6734  -8.6543  -8.5206  -8.4877  -8.1714  -7.8229  -7.5344  -7.3542
    -7.3426  -6.9947  -6.7782  -6.7548  -6.4450  -6.4041  -6.1565  -6.0597
    -5.7621  -5.2056  -4.7056  -4.5335  -4.4686  -3.9768  -3.7867  -1.0729
    -0.7459  -0.5616  -0.1228   0.2872   0.4815   0.5427   0.6724   0.9955
     1.4583   1.6267   1.6646   1.9145

          k = 0.0833-0.1443 0.0000 ( 31876 PWs)   bands (ev):

   -21.4415 -21.4356 -20.4735 -20.4690 -19.5461 -18.5856 -18.5837 -18.5779
   -18.5759 -17.6778 -17.6719 -16.8289 -16.8160 -16.3245 -16.3206 -15.2684
   -15.2636 -13.2574 -13.2506 -13.1034 -13.0933 -13.0912 -13.0878 -13.0203
   -13.0198 -11.4055 -11.4013 -11.3128 -10.7152 -10.7143  -9.9373  -9.9321
    -9.7273  -9.4920  -9.4620  -9.3101  -9.1029  -9.0978  -9.0966  -9.0921
    -8.7832  -8.7085  -8.3091  -8.2692  -7.6056  -7.5938  -7.2858  -7.2683
    -7.1320  -6.7864  -6.7725  -6.6220  -6.6181  -6.2257  -6.1638  -6.1497
    -6.1182  -5.2166  -5.1371  -4.5181  -4.4085  -4.1360  -4.1355  -0.9179
    -0.9134   0.3951   0.4092   0.4747   0.4923   0.5213   1.0656   1.3340
     1.3522   1.3747   1.3800   1.4003

          k =-0.1667 0.0000 0.0000 ( 31854 PWs)   bands (ev):

   -21.4399 -21.4372 -20.0020 -19.9955 -19.9915 -19.9885 -19.5320 -17.6772
   -17.6724 -16.8374 -16.8253 -16.7435 -16.7404 -16.3290 -16.3137 -15.6533
   -15.6500 -15.2634 -15.2610 -13.2603 -13.2312 -13.0240 -13.0179 -11.4013
   -11.4000 -11.2862 -10.7245 -10.7117 -10.2823 -10.2818 -10.2792 -10.2753
    -9.7359  -9.4837  -9.4770  -9.3108  -8.9550  -8.9534  -8.9257  -8.9227
    -8.9190  -8.9149  -8.7595  -8.7226  -7.9379  -7.7331  -7.7209  -7.7156
    -7.2928  -7.2755  -6.9504  -6.7595  -6.7308  -6.6135  -6.6111  -5.2375
    -5.1094  -4.7524  -4.7403  -4.7010  -4.4862  -4.1601  -3.9663  -0.9384
    -0.9142  -0.6697  -0.6533   0.2346   0.4388   0.5238   0.5801   0.6930
     0.8757   1.3641   1.4070   2.1963

          k =-0.1667 0.0722 0.0000 ( 31908 PWs)   bands (ev):

   -21.3486 -21.3460 -20.6224 -20.6208 -19.5483 -19.1954 -19.1844 -17.5952
   -17.5903 -17.1664 -17.1643 -17.0021 -16.9936 -16.8282 -16.8083 -15.2520
   -15.2508 -14.3178 -14.3142 -13.5787 -13.5747 -13.2506 -13.2290 -11.5252
   -11.5239 -11.2823 -10.8321 -10.8307 -10.6213 -10.6084  -9.7616  -9.7442
    -9.7294  -9.3879  -9.3736  -9.3113  -9.2676  -9.2594  -9.2241  -9.2231
    -8.7889  -8.7824  -8.4566  -8.4239  -7.9154  -7.9107  -7.6533  -7.6394
    -7.2055  -6.8691  -6.7963  -6.7096  -6.6570  -6.6491  -6.6409  -5.1929
    -5.0664  -4.9313  -4.8432  -4.8022  -4.7194  -4.4439  -4.2784  -0.5167
    -0.5095  -0.2944  -0.2613   0.1387   0.2626   0.5643   0.6015   0.6704
     0.9909   1.4925   1.5199   1.6989

          k =-0.1667-0.1443 0.0000 ( 31784 PWs)   bands (ev):

   -21.0795 -21.0746 -21.0715 -21.0714 -19.5442 -18.2442 -18.2382 -18.2370
   -18.2330 -17.3591 -17.3586 -17.3542 -17.3427 -16.8299 -16.8151 -14.4697
   -14.4630 -14.4605 -14.4530 -13.2543 -13.2307 -12.9283 -12.9258 -12.9234
   -12.9203 -11.2760 -10.3088 -10.3038 -10.2973 -10.2895  -9.9439  -9.9430
    -9.9220  -9.9178  -9.7371  -9.3114  -9.1313  -9.1269  -9.0827  -8.9963
    -8.6659  -8.6300  -8.3917  -8.3917  -8.3817  -8.3810  -7.1137  -7.0715
    -7.0666  -7.0576  -7.0567  -6.7757  -6.7464  -5.8945  -5.7791  -5.7486
    -5.7095  -5.1076  -4.9622  -4.9514  -4.9209  -4.4253  -4.4044  -0.2228
    -0.1634  -0.1144  -0.1056   0.5047   0.5346   0.7768   1.0328   1.0655
     1.0663   1.1343   1.1801   1.4001

          k =-0.0833 0.0722 0.0000 ( 31951 PWs)   bands (ev):

   -21.7129 -20.9835 -20.7420 -20.0237 -19.5807 -19.5089 -18.8415 -18.6105
   -18.1527 -17.4921 -16.8971 -16.8267 -16.8155 -16.6166 -16.2514 -15.1553
   -14.6662 -14.5681 -14.0511 -13.9306 -13.2498 -13.2466 -12.2368 -12.2235
   -12.0043 -11.7910 -11.5280 -11.3196 -10.7416 -10.3565  -9.7819  -9.7446
    -9.7251  -9.6972  -9.3742  -9.3095  -9.1691  -8.9920  -8.8321  -8.7836
    -8.6740  -8.6538  -8.5173  -8.4881  -8.1717  -7.8173  -7.5345  -7.3549
    -7.3494  -7.0055  -6.7872  -6.7461  -6.4448  -6.3897  -6.1556  -6.0598
    -5.7607  -5.2095  -4.7113  -4.5307  -4.4686  -3.9745  -3.7848  -1.0769
    -0.7441  -0.5646  -0.1283   0.2789   0.4863   0.5525   0.6794   0.9948
     1.4438   1.5829   1.6731   1.9260

     the Fermi energy is    -2.3799 ev

!    total energy              =    -351.26032853 Ry
     Harris-Foulkes estimate   =    -351.26032888 Ry
     estimated scf accuracy    <       0.00000084 Ry

     The total energy is the sum of the following terms:

     one-electron contribution =   -4804.71721917 Ry
     hartree contribution      =    2422.29227694 Ry
     xc contribution           =    -112.32644652 Ry
     ewald contribution        =    2143.49387005 Ry
     smearing contrib. (-TS)   =      -0.00280983 Ry

     convergence has been achieved in   5 iterations

     Forces acting on atoms (cartesian axes, Ry/au):

     atom    1 type  1   force =    -0.00046263   -0.00061269    0.00078700
     atom    2 type  1   force =     0.00005131    0.00037684    0.00113669
     atom    3 type  1   force =     0.00010237   -0.00019481   -0.00127453
     atom    4 type  1   force =    -0.00112108    0.00112492   -0.00384988
     atom    5 type  1   force =    -0.00081162   -0.00121363   -0.00377797
     atom    6 type  1   force =    -0.00010237    0.00019481   -0.00127453
     atom    7 type  1   force =    -0.00005131   -0.00037684    0.00113669
     atom    8 type  1   force =    -0.00015729    0.00059708    0.00095629
     atom    9 type  1   force =    -0.00005631   -0.00006562    0.00047815
     atom   10 type  1   force =     0.00027356   -0.00064928   -0.00184540
     atom   11 type  1   force =     0.00047192   -0.00094818   -0.00508679
     atom   12 type  1   force =     0.00003470   -0.00052894   -0.00832960
     atom   13 type  1   force =    -0.00003470    0.00052894   -0.00832960
     atom   14 type  1   force =     0.00054083    0.00094929   -0.00496235
     atom   15 type  1   force =     0.00013769    0.00069172   -0.00178946
     atom   16 type  1   force =     0.00005631    0.00006562    0.00047815
     atom   17 type  1   force =     0.00015729   -0.00059708    0.00095629
     atom   18 type  1   force =    -0.00013769   -0.00069172   -0.00178946
     atom   19 type  1   force =    -0.00054083   -0.00094929   -0.00496235
     atom   20 type  1   force =     0.00081162    0.00121363   -0.00377797
     atom   21 type  1   force =     0.00112108   -0.00112492   -0.00384988
     atom   22 type  1   force =    -0.00047192    0.00094818   -0.00508679
     atom   23 type  1   force =    -0.00027356    0.00064928   -0.00184540
     atom   24 type  1   force =     0.00046263    0.00061269    0.00078700
     atom   25 type  1   force =    -0.00504058    0.00452817    0.00802695
     atom   26 type  1   force =     0.00278930    0.00535748    0.00744198
     atom   27 type  1   force =     0.00549126    0.00230542    0.00799900
     atom   28 type  1   force =     0.00504058   -0.00452817    0.00802695
     atom   29 type  1   force =    -0.00278930   -0.00535748    0.00744198
     atom   30 type  1   force =    -0.00549126   -0.00230542    0.00799900
     atom   31 type  2   force =     0.00247801   -0.00251454    0.00113087
     atom   32 type  2   force =    -0.00080695   -0.00311822    0.00154353
     atom   33 type  2   force =    -0.00342649   -0.00124856    0.00141552
     atom   34 type  2   force =    -0.00247801    0.00251454    0.00113087
     atom   35 type  2   force =     0.00080695    0.00311822    0.00154353
     atom   36 type  2   force =     0.00342649    0.00124856    0.00141552

     Total force =     0.032036     Total SCF correction =     0.002531

     number of scf cycles    =   4
     number of bfgs steps    =   3

     energy   old            =    -351.2585243529 Ry
     energy   new            =    -351.2603285257 Ry

     CASE: energy  _new < energy  _old

     new trust radius        =       0.0313271445 bohr
     new conv_thr            =       0.0000008330 Ry


ATOMIC_POSITIONS (angstrom)
C        1.230472449   0.001189056   0.002610489
C       -0.000153424   0.711398131   0.005374677
C       -0.000236549   2.132857581  -0.000625788
C        1.231145674   2.840719818  -0.016086579
C        1.231129551   4.260743111  -0.015721061
C        0.000236549   4.968550730  -0.000625788
C        0.000153424   6.390010180   0.005374677
C        1.230582235   7.100343160   0.002818639
C        3.689865722   0.000739253   0.003593123
C        2.459965348   0.712094358  -0.007211746
C        2.460185279   2.132230226  -0.027943219
C        3.689893086   2.841930264  -0.036734974
C        3.690106914   4.259478047  -0.036734974
C        2.460374640   4.969225408  -0.027215997
C        2.460380536   6.389359471  -0.006034598
C        3.690134278   7.100669058   0.003593123
C        6.149417765   0.001065151   0.002818639
C        4.919619464   0.712048840  -0.006034598
C        4.919625360   2.132182903  -0.027215997
C        6.148870449   2.840665200  -0.015721061
C        6.148854326   4.260688493  -0.016086579
C        4.919814721   4.969178085  -0.027943219
C        4.920034652   6.389313953  -0.007211746
C        6.149527551   7.100219255   0.002610489
C        4.676564678   2.564938789   3.036581276
C        3.329179742   2.203912795   3.041331672
C        2.342642039   3.189424391   3.037664198
C        2.703435322   4.536469522   3.036581276
C        4.050820258   4.897495516   3.041331672
C        5.037357961   3.911983920   3.037664198
H        5.441816729   1.798277982   3.002205018
H        3.049021070   1.157878699   3.002179913
H        1.297316803   2.908140025   3.003214957
H        1.938183271   5.303130329   3.002205018
H        4.330978930   5.943529612   3.002179913
H        6.082683197   4.193268286   3.003214957



     Writing output data file batch_graph+benzene.save/
     NEW-OLD atomic charge density approx. for the potential

     negative rho (up, down):  2.122E-04 0.000E+00

     total cpu time spent up to now is      863.0 secs

     Self-consistent Calculation

     iteration #  1     ecut=    32.00 Ry     beta= 0.50
     Davidson diagonalization with overlap
     ethr =  1.00E-06,  avg # of iterations =  4.1

     negative rho (up, down):  2.116E-04 0.000E+00

     total cpu time spent up to now is      919.4 secs

     total energy              =    -351.26230864 Ry
     Harris-Foulkes estimate   =    -351.26311981 Ry
     estimated scf accuracy    <       0.00181500 Ry

     iteration #  2     ecut=    32.00 Ry     beta= 0.50
     Davidson diagonalization with overlap
     ethr =  1.44E-06,  avg # of iterations =  3.1

     negative rho (up, down):  2.135E-04 0.000E+00

     total cpu time spent up to now is      950.8 secs

     total energy              =    -351.26262432 Ry
     Harris-Foulkes estimate   =    -351.26267595 Ry
     estimated scf accuracy    <       0.00021659 Ry

     iteration #  3     ecut=    32.00 Ry     beta= 0.50
     Davidson diagonalization with overlap
     ethr =  1.72E-07,  avg # of iterations =  2.0

     negative rho (up, down):  2.155E-04 0.000E+00

     total cpu time spent up to now is      980.1 secs

     total energy              =    -351.26265913 Ry
     Harris-Foulkes estimate   =    -351.26266027 Ry
     estimated scf accuracy    <       0.00004092 Ry

     iteration #  4     ecut=    32.00 Ry     beta= 0.50
     Davidson diagonalization with overlap
     ethr =  3.25E-08,  avg # of iterations =  2.0

     negative rho (up, down):  2.197E-04 0.000E+00

     total cpu time spent up to now is     1009.1 secs

     total energy              =    -351.26266503 Ry
     Harris-Foulkes estimate   =    -351.26266418 Ry
     estimated scf accuracy    <       0.00000455 Ry

     iteration #  5     ecut=    32.00 Ry     beta= 0.50
     Davidson diagonalization with overlap
     ethr =  3.61E-09,  avg # of iterations =  2.1

     negative rho (up, down):  2.114E-04 0.000E+00

     total cpu time spent up to now is     1037.5 secs

     End of self-consistent calculation

          k = 0.0000 0.0000 0.0000 ( 31971 PWs)   bands (ev):

   -21.9337 -20.4792 -20.4769 -20.0030 -19.9992 -19.5545 -18.5904 -18.5895
   -18.5887 -18.5830 -16.8450 -16.8242 -16.7295 -15.6569 -15.0848 -15.0807
   -15.0793 -15.0767 -13.2767 -13.2488 -13.1064 -13.1033 -13.1032 -13.1004
   -12.9661 -12.9602 -11.3673 -10.2940 -10.2907 -10.0227  -9.9390  -9.9356
    -9.7109  -9.3156  -9.1069  -9.1064  -9.1020  -9.1006  -8.9651  -8.9239
    -8.9210  -8.7651  -8.6767  -8.3891  -8.2342  -7.8298  -7.7152  -7.6127
    -7.6117  -7.0774  -6.7905  -6.7815  -6.2138  -6.2095  -6.1419  -6.0965
    -5.6428  -5.6324  -4.8966  -4.5065  -4.3842  -2.4088  -2.3927  -2.3786
    -2.3689  -0.7301  -0.0344   0.4401   0.5580   0.6872   1.3312   1.3402
     1.3476   1.3608   1.5841   1.9944

          k = 0.0000 0.0722 0.0000 ( 31929 PWs)   bands (ev):

   -21.8420 -21.1113 -19.9149 -19.9097 -19.6800 -19.5489 -19.1998 -19.1925
   -17.8235 -17.8217 -17.6090 -16.8242 -16.8222 -15.9536 -15.9510 -14.6665
   -14.5523 -14.5510 -13.7065 -13.7038 -13.2667 -13.2451 -12.4441 -12.4419
   -12.3813 -12.3784 -11.5718 -11.3594 -10.7530 -10.7500 -10.1458 -10.1457
    -9.9205  -9.7120  -9.3152  -9.1165  -8.8745  -8.6764  -8.6732  -8.6133
    -8.6079  -8.4402  -8.4383  -8.3627  -8.1763  -7.7768  -7.6224  -7.4376
    -7.1128  -6.9669  -6.9076  -6.7890  -6.7056  -6.6915  -5.9973  -5.8339
    -5.4216  -5.3712  -5.2962  -4.5052  -4.4567  -3.4106  -3.3792  -1.4064
    -1.4056  -0.1136   0.1048   0.3682   0.4436   0.5541   0.5886   0.8168
     1.3170   1.7886   1.8556   2.2010

          k = 0.0000-0.1443 0.0000 ( 31940 PWs)   bands (ev):

   -21.5682 -21.5663 -19.6774 -19.6431 -19.6427 -19.6411 -19.5216 -18.7067
   -18.6989 -16.9423 -16.9380 -16.9277 -16.9205 -16.8157 -16.7996 -14.1738
   -14.1705 -14.1696 -14.1680 -13.2737 -13.2456 -13.1693 -13.1692 -11.5708
   -11.5688 -11.5626 -11.5578 -11.3581 -11.3467 -11.3421 -11.3410 -11.3358
    -9.7143  -9.6226  -9.6093  -9.3145  -8.7017  -8.6718  -8.6067  -8.6052
    -8.3044  -8.3018  -8.2982  -8.2948  -7.6190  -7.3437  -7.3421  -7.3292
    -6.9957  -6.9702  -6.9589  -6.7705  -6.7349  -6.3554  -6.3337  -6.3221
    -6.2539  -4.7310  -4.6173  -4.4164  -4.4046  -4.3256  -4.1807  -0.5117
    -0.4736  -0.4572  -0.4528   0.3422   0.4187   0.5422   0.8877   1.1860
     1.2554   1.4108   1.4882   2.0641

          k = 0.0833 0.0000 0.0000 ( 31951 PWs)   bands (ev):

   -21.8114 -20.8394 -20.3597 -20.3571 -19.5690 -19.4060 -19.3921 -18.9361
   -17.5808 -17.5799 -16.8337 -16.8330 -16.6362 -16.2948 -15.8091 -15.5558
   -14.9047 -14.6463 -14.6449 -14.1536 -13.2524 -13.2479 -12.4285 -12.1863
   -11.7337 -11.5125 -11.5123 -11.3313 -10.2014  -9.9652  -9.9643  -9.8837
    -9.7175  -9.4738  -9.3160  -9.1793  -9.1788  -9.0033  -9.0028  -8.8850
    -8.7711  -8.7413  -8.6046  -8.2310  -8.1150  -8.0674  -8.0669  -7.6835
    -7.2984  -7.0893  -6.9035  -6.7584  -6.7308  -6.4755  -6.1161  -5.8928
    -5.2634  -5.2600  -4.7944  -4.5400  -4.3522  -3.6727  -3.3886  -1.4336
    -1.1136  -0.7611  -0.0421  -0.0326   0.1741   0.4984   0.5333   0.8610
     1.5300   1.7440   2.1327   2.2033

          k = 0.0833 0.0722 0.0000 ( 31951 PWs)   bands (ev):

   -21.7198 -20.9904 -20.7488 -20.0304 -19.5878 -19.5212 -18.8487 -18.6178
   -18.1600 -17.4989 -16.9020 -16.8312 -16.8224 -16.6249 -16.2591 -15.1625
   -14.6732 -14.5756 -14.0590 -13.9377 -13.2514 -13.2477 -12.2439 -12.2309
   -12.0116 -11.7986 -11.5357 -11.3250 -10.7492 -10.3642  -9.7854  -9.7497
    -9.7158  -9.7071  -9.3821  -9.3152  -9.1765  -8.9951  -8.8326  -8.7914
    -8.6732  -8.6614  -8.5232  -8.4963  -8.1794  -7.8249  -7.5426  -7.3615
    -7.3463  -7.0177  -6.7772  -6.7502  -6.4533  -6.4103  -6.1620  -6.0678
    -5.7680  -5.2053  -4.7097  -4.5417  -4.4824  -3.9914  -3.7951  -1.0792
    -0.7533  -0.5696  -0.1257   0.2900   0.4879   0.5400   0.6618   0.9899
     1.4613   1.6299   1.6574   1.9066

          k = 0.0833-0.1443 0.0000 ( 31876 PWs)   bands (ev):

   -21.4463 -21.4445 -20.4783 -20.4779 -19.5581 -18.5921 -18.5905 -18.5855
[...]

     CASE: energy  _new < energy  _old

     new trust radius        =       0.0004142292 bohr
     new conv_thr            =       0.0000000100 Ry


ATOMIC_POSITIONS (angstrom)
C        1.230078452   0.000360329  -0.171307685
C       -0.000070998   0.710364008  -0.173843256
C       -0.000082477   2.131100705  -0.187600052
C        1.230323513   2.840588626  -0.195945102
C        1.230429877   4.260813583  -0.195829166
C        0.000082477   4.970307606  -0.187600052
C        0.000070998   6.391044303  -0.173843256
C        1.230180193   7.101065011  -0.171183933
C        3.689940316   0.000351075  -0.174592014
C        2.460248361   0.710748905  -0.180576154
C        2.460444252   2.131039194  -0.197186127
C        3.689935140   2.840752427  -0.205625437
C        3.690064860   4.260655884  -0.205625437
C        2.460583079   4.970375764  -0.196932017
C        2.460398018   6.390661949  -0.180287795
C        3.690059684   7.101057236  -0.174592014
C        6.149819807   0.000343300  -0.171183933
C        4.919601982   0.710746362  -0.180287795
C        4.919416921   2.131032547  -0.196932017
C        6.149570123   2.840594728  -0.195829166
C        6.149676487   4.260819685  -0.195945102
C        4.919555748   4.970369117  -0.197186127
C        4.919751639   6.390659406  -0.180576154
C        6.149921548   7.101047982  -0.171307685
C        4.681267690   2.568484258   3.375549242
C        3.334776725   2.201967455   3.376506871
C        2.343539749   3.183825531   3.376028898
C        2.698732310   4.532924053   3.375549242
C        4.045223275   4.899440856   3.376506871
C        5.036460251   3.917582780   3.376028898
H        5.452440840   1.802609886   3.366772732
H        3.058044096   1.150953896   3.368090496
H        1.295421007   2.896427318   3.367960501
H        1.927559160   5.298798425   3.366772732
H        4.321955904   5.950454415   3.368090496
H        6.084578993   4.204980993   3.367960501



     Writing output data file batch_graph+benzene.save/
     NEW-OLD atomic charge density approx. for the potential

     negative rho (up, down):  2.037E-04 0.000E+00

     total cpu time spent up to now is     8257.5 secs

     Self-consistent Calculation

     iteration #  1     ecut=    32.00 Ry     beta= 0.50
     Davidson diagonalization with overlap
     ethr =  1.00E-06,  avg # of iterations =  2.0

     Threshold (ethr) on eigenvalues was too large:
     Diagonalizing with lowered threshold

     Davidson diagonalization with overlap
     ethr =  7.51E-11,  avg # of iterations =  3.2

     negative rho (up, down):  2.037E-04 0.000E+00

     total cpu time spent up to now is     8319.5 secs

     total energy              =    -351.28282615 Ry
     Harris-Foulkes estimate   =    -351.28282622 Ry
     estimated scf accuracy    <       0.00000017 Ry

     iteration #  2     ecut=    32.00 Ry     beta= 0.50
     Davidson diagonalization with overlap
     ethr =  1.31E-10,  avg # of iterations =  2.4

     negative rho (up, down):  2.037E-04 0.000E+00

     total cpu time spent up to now is     8350.7 secs

     total energy              =    -351.28282616 Ry
     Harris-Foulkes estimate   =    -351.28282619 Ry
     estimated scf accuracy    <       0.00000004 Ry

     iteration #  3     ecut=    32.00 Ry     beta= 0.50
     Davidson diagonalization with overlap
     ethr =  3.54E-11,  avg # of iterations =  2.8

     negative rho (up, down):  2.037E-04 0.000E+00

     total cpu time spent up to now is     8380.9 secs

     total energy              =    -351.28282618 Ry
     Harris-Foulkes estimate   =    -351.28282618 Ry
     estimated scf accuracy    <       0.00000001 Ry

     iteration #  4     ecut=    32.00 Ry     beta= 0.50
     Davidson diagonalization with overlap
     ethr =  1.00E-11,  avg # of iterations =  2.5

     negative rho (up, down):  2.037E-04 0.000E+00

     total cpu time spent up to now is     8409.5 secs

     End of self-consistent calculation

          k = 0.0000 0.0000 0.0000 ( 31971 PWs)   bands (ev):

   -21.8586 -20.4026 -20.4026 -19.9263 -19.9233 -19.5688 -18.5180 -18.5154
   -18.5143 -18.5126 -16.8292 -16.8278 -16.6777 -15.5862 -15.0114 -15.0087
   -15.0083 -15.0080 -13.2653 -13.2428 -13.0348 -13.0346 -13.0334 -13.0333
   -12.8944 -12.8943 -11.3359 -10.2220 -10.2197  -9.9396  -9.8696  -9.8668
    -9.6916  -9.3325  -9.0389  -9.0384  -9.0326  -9.0314  -8.8949  -8.8547
    -8.8545  -8.7208  -8.6560  -8.2314  -8.1955  -7.6904  -7.6411  -7.5422
    -7.5419  -7.2736  -6.8107  -6.7753  -6.1005  -6.0996  -6.0768  -6.0701
    -5.5723  -5.5668  -4.7520  -4.6153  -4.5489  -2.3112  -2.3082  -2.3070
    -2.3065  -0.6163  -0.1388   0.3695   0.4771   0.6713   1.4151   1.4208
     1.4308   1.4336   1.4692   1.8748

          k = 0.0000 0.0722 0.0000 ( 31929 PWs)   bands (ev):

   -21.7668 -21.0361 -19.8370 -19.8338 -19.6004 -19.5654 -19.1259 -19.1240
   -17.7504 -17.7481 -17.5348 -16.8288 -16.8275 -15.8822 -15.8803 -14.5958
   -14.4804 -14.4801 -13.6337 -13.6327 -13.2630 -13.2428 -12.3735 -12.3727
   -12.3096 -12.3082 -11.5024 -11.3309 -10.6814 -10.6795 -10.0769 -10.0758
    -9.8288  -9.6930  -9.3324  -8.9751  -8.8042  -8.7092  -8.6550  -8.5437
    -8.5435  -8.3716  -8.3712  -8.2950  -8.1061  -7.6084  -7.5420  -7.3566
    -7.2069  -6.8962  -6.8078  -6.8034  -6.7323  -6.7208  -5.9315  -5.7631
    -5.2814  -5.2729  -5.2096  -4.6139  -4.6048  -3.3259  -3.3222  -1.3245
    -1.3239  -0.0101   0.0361   0.3886   0.4652   0.5298   0.5436   0.8006
     1.2165   1.6778   1.8316   2.2113

          k = 0.0000-0.1443 0.0000 ( 31940 PWs)   bands (ev):

   -21.4987 -21.4854 -19.5868 -19.5755 -19.5725 -19.5600 -19.5441 -18.6330
   -18.6272 -16.8590 -16.8564 -16.8548 -16.8477 -16.8249 -16.8208 -14.1041
   -14.1023 -14.0947 -14.0946 -13.2617 -13.2431 -13.1036 -13.1036 -11.4982
   -11.4959 -11.4908 -11.4900 -11.3260 -11.2766 -11.2735 -11.2721 -11.2714
    -9.6947  -9.5107  -9.4985  -9.3323  -8.7309  -8.6539  -8.5415  -8.5312
    -8.2351  -8.2343  -8.2296  -8.2284  -7.4558  -7.2539  -7.2534  -7.2396
    -7.1132  -6.9243  -6.9084  -6.8005  -6.7639  -6.2631  -6.2516  -6.2311
    -6.2200  -4.6694  -4.6351  -4.3298  -4.3274  -4.3191  -4.2867  -0.3958
    -0.3908  -0.3846  -0.3803   0.2358   0.3852   0.4641   0.8006   1.1732
     1.2260   1.4914   1.5205   1.9826

          k = 0.0833 0.0000 0.0000 ( 31951 PWs)   bands (ev):

   -21.7362 -20.7642 -20.2828 -20.2828 -19.5687 -19.3320 -19.3308 -18.8638
   -17.5070 -17.5067 -16.8362 -16.8278 -16.5734 -16.2242 -15.7378 -15.4852
   -14.8347 -14.5741 -14.5737 -14.0812 -13.2490 -13.2461 -12.3588 -12.1155
   -11.6624 -11.4416 -11.4413 -11.3046 -10.1326  -9.8964  -9.8951  -9.7908
    -9.6972  -9.4031  -9.3333  -9.1103  -9.1102  -8.9348  -8.9347  -8.7634
    -8.7122  -8.6972  -8.6078  -8.0908  -8.0581  -7.9968  -7.9966  -7.6165
    -7.3301  -6.9783  -6.9380  -6.7821  -6.7657  -6.4252  -6.0453  -5.8271
    -5.1672  -5.1649  -4.6827  -4.6316  -4.4689  -3.6087  -3.3315  -1.3528
    -1.0208  -0.6554   0.0290   0.0470   0.0765   0.4186   0.4478   0.8446
     1.4155   1.6314   2.0785   2.1837

          k = 0.0833 0.0722 0.0000 ( 31951 PWs)   bands (ev):

   -21.6446 -20.9151 -20.6736 -19.9540 -19.5689 -19.4778 -18.7762 -18.5449
   -18.0868 -17.4246 -16.8378 -16.8305 -16.8184 -16.5585 -16.1882 -15.0910
   -14.6013 -14.5049 -13.9886 -13.8657 -13.2485 -13.2453 -12.1731 -12.1606
   -11.9406 -11.7288 -11.4664 -11.2997 -10.6787 -10.2940  -9.6990  -9.6852
    -9.6767  -9.6395  -9.3337  -9.3105  -9.1059  -8.8467  -8.7446  -8.7234
    -8.6941  -8.5914  -8.5149  -8.4291  -8.1112  -7.7068  -7.4751  -7.3279
    -7.2909  -7.1096  -6.7784  -6.7717  -6.3838  -6.3408  -6.0783  -6.0000
    -5.6824  -5.0750  -4.6563  -4.6188  -4.5646  -3.9700  -3.7269  -0.9921
    -0.6700  -0.4935  -0.0089   0.1856   0.4331   0.4489   0.7213   0.9722
     1.3669   1.5220   1.7335   1.8842

          k = 0.0833-0.1443 0.0000 ( 31876 PWs)   bands (ev):

   -21.3769 -21.3636 -20.4092 -20.3961 -19.5678 -18.5218 -18.5182 -18.5121
   -18.5083 -17.6111 -17.6055 -16.8361 -16.8284 -16.2616 -16.2559 -15.2020
   -15.2013 -13.2488 -13.2440 -13.0380 -13.0331 -13.0330 -13.0305 -12.9598
   -12.9556 -11.3436 -11.3361 -11.2948 -10.6546 -10.6516  -9.8738  -9.8684
    -9.7001  -9.3656  -9.3566  -9.3334  -9.0417  -9.0371  -9.0328  -9.0309
    -8.7380  -8.7264  -8.2135  -8.2107  -7.5430  -7.5368  -7.3063  -7.2219
    -7.2124  -6.7791  -6.7691  -6.5613  -6.5556  -6.0956  -6.0920  -6.0855
    -6.0782  -5.0749  -5.0579  -4.6289  -4.5939  -4.0795  -4.0698  -0.8462
    -0.8388   0.3740   0.4191   0.4357   0.5140   0.5192   0.9907   1.3475
     1.3899   1.4162   1.4239   1.4348

          k =-0.1667 0.0000 0.0000 ( 31854 PWs)   bands (ev):

   -21.3744 -21.3662 -19.9286 -19.9284 -19.9213 -19.9205 -19.5654 -17.6084
   -17.6081 -16.8441 -16.8272 -16.6778 -16.6774 -16.2637 -16.2557 -15.5883
   -15.5878 -15.2035 -15.1955 -13.2514 -13.2320 -12.9597 -12.9594 -11.3381
   -11.3379 -11.2705 -10.6591 -10.6497 -10.2200 -10.2188 -10.2182 -10.2167
    -9.7064  -9.3665  -9.3567  -9.3340  -8.8938  -8.8938  -8.8601  -8.8592
    -8.8562  -8.8552  -8.7984  -8.7034  -7.7251  -7.6517  -7.6488  -7.6384
    -7.2333  -7.2253  -7.2156  -6.7770  -6.7517  -6.5577  -6.5515  -5.0833
    -5.0459  -4.6761  -4.6731  -4.6524  -4.6264  -4.0848  -4.0443  -0.8460
    -0.8402  -0.6031  -0.5994   0.3663   0.4613   0.4776   0.5123   0.5632
     0.7648   1.3462   1.3736   2.1158

          k =-0.1667 0.0722 0.0000 ( 31908 PWs)   bands (ev):

   -21.2832 -21.2750 -20.5572 -20.5491 -19.5668 -19.1306 -19.1221 -17.5263
   -17.5260 -17.0996 -17.0925 -16.9306 -16.9293 -16.8428 -16.8265 -15.1873
   -15.1870 -14.2569 -14.2493 -13.5109 -13.5106 -13.2512 -13.2301 -11.4657
   -11.4602 -11.2662 -10.7700 -10.7700 -10.5558 -10.5465  -9.7084  -9.6885
    -9.6812  -9.3344  -9.2601  -9.2511  -9.2035  -9.2006  -9.1633  -9.1632
    -8.8006  -8.7226  -8.3845  -8.3802  -7.8519  -7.8515  -7.5873  -7.5803
    -7.3136  -6.7962  -6.7695  -6.7172  -6.6920  -6.5922  -6.5887  -5.0364
    -4.9991  -4.7584  -4.7578  -4.7338  -4.6525  -4.5936  -4.4958  -0.4459
    -0.4433  -0.1909  -0.1885   0.2853   0.3356   0.4556   0.4966   0.5526
     0.8823   1.4673   1.4902   1.6054

          k =-0.1667-0.1443 0.0000 ( 31784 PWs)   bands (ev):

   -21.0155 -21.0096 -21.0045 -20.9941 -19.5664 -18.1787 -18.1735 -18.1713
   -18.1649 -17.2959 -17.2903 -17.2838 -17.2773 -16.8433 -16.8278 -14.4034
   -14.3977 -14.3960 -14.3906 -13.2518 -13.2284 -12.8670 -12.8667 -12.8600
   -12.8595 -11.2613 -10.2448 -10.2376 -10.2360 -10.2253  -9.8795  -9.8759
    -9.8648  -9.8611  -9.7091  -9.3346  -8.9670  -8.9490  -8.9336  -8.9276
    -8.7548  -8.6958  -8.3274  -8.3271  -8.3242  -8.3206  -7.3037  -7.0061
    -7.0057  -7.0030  -6.9998  -6.7811  -6.7419  -5.7028  -5.6949  -5.6817
    -5.6731  -4.9362  -4.8928  -4.8776  -4.8572  -4.6006  -4.5962  -0.0837
    -0.0762  -0.0550  -0.0417   0.3989   0.5013   0.6609   1.0221   1.1360
     1.1412   1.1575   1.1721   1.3010

          k =-0.0833 0.0722 0.0000 ( 31951 PWs)   bands (ev):

   -21.6446 -20.9151 -20.6736 -19.9540 -19.5689 -19.4778 -18.7762 -18.5449
   -18.0868 -17.4246 -16.8384 -16.8301 -16.8182 -16.5585 -16.1882 -15.0910
   -14.6013 -14.5050 -13.9886 -13.8658 -13.2484 -13.2453 -12.1731 -12.1607
   -11.9406 -11.7288 -11.4664 -11.2998 -10.6786 -10.2940  -9.6990  -9.6852
    -9.6767  -9.6397  -9.3335  -9.3106  -9.1059  -8.8462  -8.7456  -8.7235
    -8.6941  -8.5914  -8.5140  -8.4291  -8.1112  -7.7057  -7.4751  -7.3282
    -7.2909  -7.1127  -6.7768  -6.7729  -6.3838  -6.3383  -6.0778  -6.0000
    -5.6825  -5.0756  -4.6600  -4.6169  -4.5630  -3.9697  -3.7266  -0.9928
    -0.6695  -0.4942  -0.0097   0.1816   0.4332   0.4525   0.7222   0.9719
     1.3481   1.4949   1.7334   1.8913

     the Fermi energy is    -2.3082 ev

!    total energy              =    -351.28282618 Ry
     Harris-Foulkes estimate   =    -351.28282618 Ry
     estimated scf accuracy    <          1.1E-09 Ry

     The total energy is the sum of the following terms:

     one-electron contribution =   -4566.01475298 Ry
     hartree contribution      =    2303.09270358 Ry
     xc contribution           =    -112.23293635 Ry
     ewald contribution        =    2023.87498040 Ry
     smearing contrib. (-TS)   =      -0.00282083 Ry

     convergence has been achieved in   4 iterations

     Forces acting on atoms (cartesian axes, Ry/au):

     atom    1 type  1   force =     0.00005495   -0.00001753   -0.00000508
     atom    2 type  1   force =     0.00000665    0.00002700   -0.00000964
     atom    3 type  1   force =     0.00002388   -0.00000019    0.00004578
     atom    4 type  1   force =     0.00000381   -0.00000856   -0.00001657
     atom    5 type  1   force =    -0.00003838    0.00002081   -0.00002124
     atom    6 type  1   force =    -0.00002388    0.00000019    0.00004578
     atom    7 type  1   force =    -0.00000665   -0.00002700   -0.00000964
     atom    8 type  1   force =     0.00000595    0.00000902   -0.00001056
     atom    9 type  1   force =     0.00000939   -0.00004490   -0.00001983
     atom   10 type  1   force =     0.00001989    0.00003676    0.00002289
     atom   11 type  1   force =     0.00003274   -0.00000309    0.00000158
     atom   12 type  1   force =     0.00003218   -0.00002247    0.00000487
     atom   13 type  1   force =    -0.00003218    0.00002247    0.00000487
     atom   14 type  1   force =     0.00000272   -0.00000844   -0.00000869
     atom   15 type  1   force =    -0.00002904   -0.00003622    0.00001756
     atom   16 type  1   force =    -0.00000939    0.00004490   -0.00001983
     atom   17 type  1   force =    -0.00000595   -0.00000902   -0.00001056
     atom   18 type  1   force =     0.00002904    0.00003622    0.00001756
     atom   19 type  1   force =    -0.00000272    0.00000844   -0.00000869
     atom   20 type  1   force =     0.00003838   -0.00002081   -0.00002124
     atom   21 type  1   force =    -0.00000381    0.00000856   -0.00001657
     atom   22 type  1   force =    -0.00003274    0.00000309    0.00000158
     atom   23 type  1   force =    -0.00001989   -0.00003676    0.00002289
     atom   24 type  1   force =    -0.00005495    0.00001753   -0.00000508
     atom   25 type  1   force =    -0.00000495    0.00000091    0.00002547
     atom   26 type  1   force =     0.00000261    0.00006818   -0.00002350
     atom   27 type  1   force =     0.00006501   -0.00002439    0.00001145
     atom   28 type  1   force =     0.00000495   -0.00000091    0.00002547
     atom   29 type  1   force =    -0.00000261   -0.00006818   -0.00002350
     atom   30 type  1   force =    -0.00006501    0.00002439    0.00001145
     atom   31 type  2   force =    -0.00001314    0.00002782   -0.00001669
     atom   32 type  2   force =     0.00002756    0.00002707   -0.00001829
     atom   33 type  2   force =     0.00004204    0.00000133    0.00002048
     atom   34 type  2   force =     0.00001314   -0.00002782   -0.00001669
     atom   35 type  2   force =    -0.00002756   -0.00002707   -0.00001829
     atom   36 type  2   force =    -0.00004204   -0.00000133    0.00002048

     Total force =     0.000268     Total SCF correction =     0.000066
     SCF correction compared to forces is large: reduce conv_thr to get better values

     bfgs converged in  39 scf cycles and  38 bfgs steps
     (criteria: energy <  1.0E-05 Ry, force <  1.0E-04 Ry/Bohr)

     End of BFGS Geometry Optimization

     Final energy   =    -351.2828261794 Ry
Begin final coordinates

ATOMIC_POSITIONS (angstrom)
C        1.230078452   0.000360329  -0.171307685
C       -0.000070998   0.710364008  -0.173843256
C       -0.000082477   2.131100705  -0.187600052
C        1.230323513   2.840588626  -0.195945102
C        1.230429877   4.260813583  -0.195829166
C        0.000082477   4.970307606  -0.187600052
C        0.000070998   6.391044303  -0.173843256
C        1.230180193   7.101065011  -0.171183933
C        3.689940316   0.000351075  -0.174592014
C        2.460248361   0.710748905  -0.180576154
C        2.460444252   2.131039194  -0.197186127
C        3.689935140   2.840752427  -0.205625437
C        3.690064860   4.260655884  -0.205625437
C        2.460583079   4.970375764  -0.196932017
C        2.460398018   6.390661949  -0.180287795
C        3.690059684   7.101057236  -0.174592014
C        6.149819807   0.000343300  -0.171183933
C        4.919601982   0.710746362  -0.180287795
C        4.919416921   2.131032547  -0.196932017
C        6.149570123   2.840594728  -0.195829166
C        6.149676487   4.260819685  -0.195945102
C        4.919555748   4.970369117  -0.197186127
C        4.919751639   6.390659406  -0.180576154
C        6.149921548   7.101047982  -0.171307685
C        4.681267690   2.568484258   3.375549242
C        3.334776725   2.201967455   3.376506871
C        2.343539749   3.183825531   3.376028898
C        2.698732310   4.532924053   3.375549242
C        4.045223275   4.899440856   3.376506871
C        5.036460251   3.917582780   3.376028898
H        5.452440840   1.802609886   3.366772732
H        3.058044096   1.150953896   3.368090496
H        1.295421007   2.896427318   3.367960501
H        1.927559160   5.298798425   3.366772732
H        4.321955904   5.950454415   3.368090496
H        6.084578993   4.204980993   3.367960501
End final coordinates



     Writing output data file batch_graph+benzene.save/

     init_run     :     19.98s CPU     20.30s WALL (       1 calls)
     electrons    :   7711.81s CPU   7823.20s WALL (      39 calls)
     update_pot   :    133.51s CPU    136.57s WALL (      38 calls)
     forces       :    407.33s CPU    411.36s WALL (      39 calls)

     Called by init_run:
     wfcinit      :     15.62s CPU     15.78s WALL (       1 calls)
     potinit      :      2.39s CPU      2.49s WALL (       1 calls)
     hinit0       :      1.12s CPU      1.13s WALL (       1 calls)

     Called by electrons:
     c_bands      :   6423.60s CPU   6492.88s WALL (     237 calls)
     sum_band     :    785.40s CPU    802.35s WALL (     237 calls)
     v_of_rho     :    418.92s CPU    438.35s WALL (     269 calls)
     newd         :    150.53s CPU    158.79s WALL (     269 calls)
     mix_rho      :      8.50s CPU      8.72s WALL (     237 calls)

     Called by c_bands:
     init_us_2    :     25.92s CPU     26.01s WALL (    5140 calls)
     cegterg      :   6365.82s CPU   6434.45s WALL (    2370 calls)

     Called by sum_band:
     sum_band:bec :      0.93s CPU      0.93s WALL (    2370 calls)
     addusdens    :    106.33s CPU    114.27s WALL (     237 calls)

     Called by *egterg:
     h_psi        :   3209.17s CPU   3261.22s WALL (    8793 calls)
     s_psi        :    954.64s CPU    957.16s WALL (    8793 calls)
     g_psi        :      5.05s CPU      5.08s WALL (    6413 calls)
     cdiaghg      :    227.03s CPU    227.62s WALL (    8333 calls)

     Called by h_psi:
     h_psi:pot    :   3202.03s CPU   3247.74s WALL (    8793 calls)
     h_psi:calbec :   1023.97s CPU   1027.22s WALL (    8793 calls)
     vloc_psi     :   1218.10s CPU   1258.25s WALL (    8793 calls)
     add_vuspsi   :    959.92s CPU    962.24s WALL (    8793 calls)

     General routines
     calbec       :   1675.19s CPU   1680.36s WALL (   12723 calls)
     fft          :    260.71s CPU    270.61s WALL (   16992 calls)
     ffts         :      1.22s CPU      1.27s WALL (     506 calls)
     fftw         :   1366.58s CPU   1412.00s WALL ( 1115214 calls)
     interpolate  :      5.05s CPU      5.24s WALL (     269 calls)

     Parallel routines
     fft_scatt_xy :    146.58s CPU    152.18s WALL ( 1132712 calls)
     fft_scatt_yz :    236.21s CPU    255.06s WALL ( 1132712 calls)

     PWSCF        :      2h18m CPU      2h20m WALL


   This run was terminated on:   4: 2:48   3Dec2020            

=------------------------------------------------------------------------------=
   JOB DONE.
=------------------------------------------------------------------------------=
