
     Program PWSCF v.6.4.1 starts on  2Dec2020 at 15:25:46 

     This program is part of the open-source Quantum ESPRESSO suite
     for quantum simulation of materials; please cite
         "P. Giannozzi et al., J. Phys.:Condens. Matter 21 395502 (2009);
         "P. Giannozzi et al., J. Phys.:Condens. Matter 29 465901 (2017);
          URL http://www.quantum-espresso.org", 
     in publications or presentations arising from this work. More details at
     http://www.quantum-espresso.org/quote

     Parallel version (MPI), running on     8 processors

     MPI processes distributed on     1 nodes
     R & G space division:  proc/nbgrp/npool/nimage =       8
     Waiting for input...
     Reading input from standard input

     Current dimensions of program PWSCF are:
     Max number of different atomic species (ntypx) = 10
     Max number of k-points (npk) =  40000
     Max angular momentum in pseudopotentials (lmaxx) =  3

     IMPORTANT: XC functional enforced from input :
     Exchange-correlation      = VDW-DF ( 1  4  4  0 1 0)
     Any further DFT definition will be discarded
     Please, verify this is what you really want

               file C.pbe-rrkjus.UPF: wavefunction(s)  2S 2P renormalized

     Subspace diagonalization in iterative solution of the eigenvalue problem:
     a serial algorithm will be used


     Parallelization info
     --------------------
     sticks:   dense  smooth     PW     G-vecs:    dense   smooth      PW
     Min         714     285     79               126154    31889    4649
     Max         715     286     80               126163    31900    4658
     Sum        5713    2283    637              1009261   255153   37237



     bravais-lattice index     =            0
     lattice parameter (alat)  =       4.6487  a.u.
     unit-cell volume          =   10440.3175 (a.u.)^3
     number of atoms/cell      =           36
     number of atomic types    =            2
     number of electrons       =       126.00
     number of Kohn-Sham states=           76
     kinetic-energy cutoff     =      32.0000  Ry
     charge density cutoff     =     320.0000  Ry
     convergence threshold     =      1.0E-06
     mixing beta               =       0.5000
     number of iterations used =            8  plain     mixing
     Exchange-correlation      = VDW-DF ( 1  4  4  0 1 0)
     nstep                     =          200


     celldm(1)=   4.648726  celldm(2)=   0.000000  celldm(3)=   0.000000
     celldm(4)=   0.000000  celldm(5)=   0.000000  celldm(6)=   0.000000

     crystal axes: (cart. coord. in units of alat)
               a(1) = (   3.000000   0.000000   0.000000 )  
               a(2) = (   0.000000   3.464102   0.000000 )  
               a(3) = (   0.000000   0.000000  10.000000 )  

     reciprocal axes: (cart. coord. in units 2 pi/alat)
               b(1) = (  0.333333  0.000000  0.000000 )  
               b(2) = (  0.000000  0.288675  0.000000 )  
               b(3) = (  0.000000  0.000000  0.100000 )  


     PseudoPot. # 1 for C  read from file:
     ../../pseudopotentials/C.pbe-rrkjus.UPF
     MD5 check sum: 00fb224312de0c5b6853bd333518df6f
     Pseudo is Ultrasoft, Zval =  4.0
     Generated by new atomic code, or converted to UPF format
     Using radial grid of  627 points,  4 beta functions with: 
                l(1) =   0
                l(2) =   0
                l(3) =   1
                l(4) =   1
     Q(r) pseudized with 0 coefficients 


     PseudoPot. # 2 for H  read from file:
     ../../pseudopotentials/H.pbe-rrkjus_psl.1.0.0.UPF
     MD5 check sum: 3f4114867bd07edc7f1424d066fc1888
     Pseudo is Ultrasoft, Zval =  1.0
     Generated using "atomic" code by A. Dal Corso v.6.3MaX
     Using radial grid of  929 points,  2 beta functions with: 
                l(1) =   0
                l(2) =   0
     Q(r) pseudized with 0 coefficients 


     vdW kernel table read from file vdW_kernel_table
     MD5 check sum: 48e77a2e26edf626eeb0eaa751ad5cac

     atomic species   valence    mass     pseudopotential
        C              4.00    12.01070     C ( 1.00)
        H              1.00     1.00790     H ( 1.00)

     No symmetry found



   Cartesian axes

     site n.     atom                  positions (alat units)
         1           C   tau(   1) = (   0.5000000   0.0000000   0.0000000  )
         2           C   tau(   2) = (   0.0000000   0.2886752   0.0000000  )
         3           C   tau(   3) = (   0.0000000   0.8660255   0.0000000  )
         4           C   tau(   4) = (   0.5000000   1.1547006   0.0000000  )
         5           C   tau(   5) = (   0.5000000   1.7320509   0.0000000  )
         6           C   tau(   6) = (   0.0000000   2.0207261   0.0000000  )
         7           C   tau(   7) = (   0.0000000   2.5980764   0.0000000  )
         8           C   tau(   8) = (   0.5000000   2.8867516   0.0000000  )
         9           C   tau(   9) = (   1.5000001   0.0000000   0.0000000  )
        10           C   tau(  10) = (   1.0000001   0.2886752   0.0000000  )
        11           C   tau(  11) = (   1.0000001   0.8660255   0.0000000  )
        12           C   tau(  12) = (   1.5000001   1.1547006   0.0000000  )
        13           C   tau(  13) = (   1.5000001   1.7320509   0.0000000  )
        14           C   tau(  14) = (   1.0000001   2.0207261   0.0000000  )
        15           C   tau(  15) = (   1.0000001   2.5980764   0.0000000  )
        16           C   tau(  16) = (   1.5000001   2.8867516   0.0000000  )
        17           C   tau(  17) = (   2.5000002   0.0000000   0.0000000  )
        18           C   tau(  18) = (   2.0000002   0.2886752   0.0000000  )
        19           C   tau(  19) = (   2.0000002   0.8660255   0.0000000  )
        20           C   tau(  20) = (   2.5000002   1.1547006   0.0000000  )
        21           C   tau(  21) = (   2.5000002   1.7320509   0.0000000  )
        22           C   tau(  22) = (   2.0000002   2.0207261   0.0000000  )
        23           C   tau(  23) = (   2.0000002   2.5980764   0.0000000  )
        24           C   tau(  24) = (   2.5000002   2.8867516   0.0000000  )
        25           C   tau(  25) = (   1.9009414   0.7537593   1.2195123  )
        26           C   tau(  26) = (   1.3533101   0.6070663   1.2195123  )
        27           C   tau(  27) = (   0.9523658   1.0080106   1.2195123  )
        28           C   tau(  28) = (   1.0990588   1.5556419   1.2195123  )
        29           C   tau(  29) = (   1.6466902   1.7023349   1.2195123  )
        30           C   tau(  30) = (   2.0476344   1.3013907   1.2195123  )
        31           H   tau(  31) = (   2.2144677   0.4402330   1.2195123  )
        32           H   tau(  32) = (   1.2385082   0.1788571   1.2195123  )
        33           H   tau(  33) = (   0.5241566   0.8932087   1.2195123  )
        34           H   tau(  34) = (   0.7855325   1.8691682   1.2195123  )
        35           H   tau(  35) = (   1.7614920   2.1305442   1.2195123  )
        36           H   tau(  36) = (   2.4758436   1.4161925   1.2195123  )

     number of k points=    10  gaussian smearing, width (Ry)=  0.0200
                       cart. coord. in units 2pi/alat
        k(    1) = (   0.0000000   0.0000000   0.0000000), wk =   0.1250000
        k(    2) = (   0.0000000   0.0721688   0.0000000), wk =   0.2500000
        k(    3) = (   0.0000000  -0.1443376   0.0000000), wk =   0.1250000
        k(    4) = (   0.0833333   0.0000000   0.0000000), wk =   0.2500000
        k(    5) = (   0.0833333   0.0721688   0.0000000), wk =   0.2500000
        k(    6) = (   0.0833333  -0.1443376   0.0000000), wk =   0.2500000
        k(    7) = (  -0.1666667   0.0000000   0.0000000), wk =   0.1250000
        k(    8) = (  -0.1666667   0.0721688   0.0000000), wk =   0.2500000
        k(    9) = (  -0.1666667  -0.1443376   0.0000000), wk =   0.1250000
        k(   10) = (  -0.0833333   0.0721688   0.0000000), wk =   0.2500000

     Dense  grid:  1009261 G-vectors     FFT dimensions: (  80,  96, 270)

     Smooth grid:   255153 G-vectors     FFT dimensions: (  54,  60, 180)

     Estimated max dynamical RAM per process >     428.17 MB

     Estimated total dynamical RAM >       3.35 GB

     Initial potential from superposition of free atoms

     starting charge  125.99836, renormalised to  126.00000

     negative rho (up, down):  2.511E-04 0.000E+00


     %%%%%%%%%%%%%%%%%%%%%%%%%%%%%%%%%%%%%%%%%%%%%%%%%%%%%%%%%%%%%%%%%%%%%%%%
     %                                                                      %
     % You are using vdW-DF, which was implemented by the Thonhauser group. %
     % Please cite the following two papers that made this development      %
     % possible and the two reviews that describe the various versions:     %
     %                                                                      %
     %   T. Thonhauser et al., PRL 115, 136402 (2015).                      %
     %   T. Thonhauser et al., PRB 76, 125112 (2007).                       %
     %   K. Berland et al., Rep. Prog. Phys. 78, 066501 (2015).             %
     %   D.C. Langreth et al., J. Phys.: Condens. Matter 21, 084203 (2009). %
     %                                                                      %
     %                                                                      %
     % If you are calculating the stress with vdW-DF, please also cite:     %
     %                                                                      %
     %   R. Sabatini et al., J. Phys.: Condens. Matter 24, 424209 (2012).   %
     %                                                                      %
     %%%%%%%%%%%%%%%%%%%%%%%%%%%%%%%%%%%%%%%%%%%%%%%%%%%%%%%%%%%%%%%%%%%%%%%%


     Starting wfcs are  126 randomized atomic wfcs

     total cpu time spent up to now is       20.6 secs

     Self-consistent Calculation

     iteration #  1     ecut=    32.00 Ry     beta= 0.50
     Davidson diagonalization with overlap
     ethr =  1.00E-02,  avg # of iterations =  2.0

     negative rho (up, down):  2.135E-04 0.000E+00

     total cpu time spent up to now is       57.6 secs

     total energy              =    -350.86949435 Ry
     Harris-Foulkes estimate   =    -352.96837861 Ry
     estimated scf accuracy    <       4.24384079 Ry

     iteration #  2     ecut=    32.00 Ry     beta= 0.50
     Davidson diagonalization with overlap
     ethr =  3.37E-03,  avg # of iterations =  6.2

     negative rho (up, down):  5.236E-04 0.000E+00

     total cpu time spent up to now is       89.9 secs

     total energy              =    -351.20712012 Ry
     Harris-Foulkes estimate   =    -351.36173777 Ry
     estimated scf accuracy    <       0.39470822 Ry

     iteration #  3     ecut=    32.00 Ry     beta= 0.50
     Davidson diagonalization with overlap
     c_bands:  1 eigenvalues not converged
     ethr =  3.13E-04,  avg # of iterations = 10.3

     negative rho (up, down):  4.472E-04 0.000E+00

     total cpu time spent up to now is      126.2 secs

     total energy              =    -351.24543377 Ry
     Harris-Foulkes estimate   =    -351.26208294 Ry
     estimated scf accuracy    <       0.05234952 Ry

     iteration #  4     ecut=    32.00 Ry     beta= 0.50
     Davidson diagonalization with overlap
     ethr =  4.15E-05,  avg # of iterations =  6.9

     negative rho (up, down):  2.914E-04 0.000E+00

     total cpu time spent up to now is      161.5 secs

     total energy              =    -351.25333798 Ry
     Harris-Foulkes estimate   =    -351.25863436 Ry
     estimated scf accuracy    <       0.01629781 Ry

     iteration #  5     ecut=    32.00 Ry     beta= 0.50
     Davidson diagonalization with overlap
     ethr =  1.29E-05,  avg # of iterations =  4.2

     negative rho (up, down):  3.045E-04 0.000E+00

     total cpu time spent up to now is      192.0 secs

     total energy              =    -351.25663597 Ry
     Harris-Foulkes estimate   =    -351.25697069 Ry
     estimated scf accuracy    <       0.00260403 Ry

     iteration #  6     ecut=    32.00 Ry     beta= 0.50
     Davidson diagonalization with overlap
     ethr =  2.07E-06,  avg # of iterations =  7.6

     negative rho (up, down):  2.459E-04 0.000E+00

     total cpu time spent up to now is      225.4 secs

     total energy              =    -351.25701711 Ry
     Harris-Foulkes estimate   =    -351.25709041 Ry
     estimated scf accuracy    <       0.00026212 Ry

     iteration #  7     ecut=    32.00 Ry     beta= 0.50
     Davidson diagonalization with overlap
     ethr =  2.08E-07,  avg # of iterations =  2.2

     negative rho (up, down):  2.257E-04 0.000E+00

     total cpu time spent up to now is      253.6 secs

     total energy              =    -351.25706690 Ry
     Harris-Foulkes estimate   =    -351.25706571 Ry
     estimated scf accuracy    <       0.00002155 Ry

     iteration #  8     ecut=    32.00 Ry     beta= 0.50
     Davidson diagonalization with overlap
     ethr =  1.71E-08,  avg # of iterations =  2.1

     negative rho (up, down):  2.175E-04 0.000E+00

     total cpu time spent up to now is      285.9 secs

     total energy              =    -351.25707115 Ry
     Harris-Foulkes estimate   =    -351.25707217 Ry
     estimated scf accuracy    <       0.00000379 Ry

     iteration #  9     ecut=    32.00 Ry     beta= 0.50
     Davidson diagonalization with overlap
     ethr =  3.01E-09,  avg # of iterations =  2.1

     negative rho (up, down):  2.142E-04 0.000E+00

     total cpu time spent up to now is      315.0 secs

     End of self-consistent calculation

          k = 0.0000 0.0000 0.0000 ( 31971 PWs)   bands (ev):

   -21.9136 -20.4611 -20.4551 -19.9865 -19.9771 -19.5537 -18.5709 -18.5707
   -18.5640 -18.5615 -16.8269 -16.8133 -16.7207 -15.6370 -15.0594 -15.0593
   -15.0587 -15.0571 -13.2601 -13.2347 -13.0831 -13.0811 -13.0799 -13.0761
   -12.9399 -12.9397 -11.3398 -10.2672 -10.2660 -10.0098  -9.9197  -9.9186
    -9.6669  -9.3235  -9.0907  -9.0902  -9.0762  -9.0735  -8.9405  -8.9051
    -8.9036  -8.7543  -8.6503  -8.3926  -8.2126  -7.8271  -7.7037  -7.5873
    -7.5854  -7.0341  -6.7846  -6.7710  -6.2161  -6.2019  -6.1172  -6.0617
    -5.6155  -5.6145  -4.7961  -4.4764  -4.4593  -2.3688  -2.3667  -2.3658
    -2.3643  -0.6584  -0.0526   0.4184   0.5222   0.6986   1.3586   1.3639
     1.3776   1.4018   1.5800   1.9850

          k = 0.0000 0.0722 0.0000 ( 31929 PWs)   bands (ev):

   -21.8218 -21.0911 -19.8991 -19.8876 -19.6650 -19.5436 -19.1776 -19.1708
   -17.8022 -17.8015 -17.5874 -16.8172 -16.8129 -15.9306 -15.9304 -14.6470
   -14.5299 -14.5292 -13.6839 -13.6827 -13.2485 -13.2257 -12.4217 -12.4214
   -12.3568 -12.3565 -11.5523 -11.3314 -10.7275 -10.7268 -10.1248 -10.1243
    -9.9101  -9.6679  -9.3224  -9.1093  -8.8499  -8.6626  -8.6489  -8.5908
    -8.5893  -8.4195  -8.4175  -8.3419  -8.1505  -7.7885  -7.6115  -7.4199
    -7.0896  -6.9403  -6.8997  -6.7792  -6.6879  -6.6460  -5.9802  -5.8055
    -5.4042  -5.3681  -5.2594  -4.4738  -4.4664  -3.3761  -3.3617  -1.3953
    -1.3788  -0.0276   0.0895   0.3269   0.4403   0.5544   0.6197   0.8286
     1.3060   1.7837   1.8643   2.2054

          k = 0.0000-0.1443 0.0000 ( 31940 PWs)   bands (ev):

   -21.5539 -21.5401 -19.6727 -19.6297 -19.6278 -19.6120 -19.5029 -18.6863
   -18.6768 -16.9377 -16.9198 -16.9042 -16.8996 -16.7944 -16.7865 -14.1563
   -14.1556 -14.1424 -14.1397 -13.2569 -13.2256 -13.1529 -13.1446 -11.5462
   -11.5457 -11.5381 -11.5372 -11.3382 -11.3259 -11.3178 -11.3173 -11.3103
    -9.6703  -9.6170  -9.5961  -9.3218  -8.6889  -8.6469  -8.5928  -8.5674
    -8.2848  -8.2822  -8.2749  -8.2737  -7.6373  -7.3355  -7.3295  -7.3159
    -6.9746  -6.9556  -6.9161  -6.7482  -6.7175  -6.3435  -6.3103  -6.2905
    -6.2134  -4.7481  -4.6736  -4.3950  -4.3777  -4.2220  -4.1523  -0.5053
    -0.4508  -0.4443  -0.4285   0.3379   0.4826   0.5243   0.8681   1.1987
     1.2539   1.4327   1.4743   2.0584

          k = 0.0833 0.0000 0.0000 ( 31951 PWs)   bands (ev):

   -21.7912 -20.8192 -20.3418 -20.3352 -19.5733 -19.3841 -19.3689 -18.9148
   -17.5612 -17.5587 -16.8237 -16.8211 -16.6197 -16.2730 -15.7861 -15.5362
   -14.8863 -14.6238 -14.6226 -14.1292 -13.2345 -13.2289 -12.4081 -12.1630
   -11.7090 -11.4912 -11.4890 -11.3022 -10.1828  -9.9448  -9.9442  -9.8754
    -9.6737  -9.4494  -9.3234  -9.1582  -9.1567  -8.9824  -8.9815  -8.8688
    -8.7456  -8.7294  -8.5936  -8.2273  -8.0948  -8.0422  -8.0404  -7.6653
    -7.2916  -7.0756  -6.8651  -6.7479  -6.7184  -6.4469  -6.0878  -5.8758
    -5.2778  -5.2471  -4.6853  -4.5029  -4.4195  -3.6427  -3.3813  -1.4163
    -1.0829  -0.7026  -0.0422  -0.0244   0.1549   0.5020   0.5570   0.8727
     1.5205   1.7387   2.1559   2.1946

          k = 0.0833 0.0722 0.0000 ( 31951 PWs)   bands (ev):

   -21.6996 -20.9702 -20.7287 -20.0110 -19.5861 -19.5029 -18.8275 -18.5966
   -18.1389 -17.4774 -16.8910 -16.8211 -16.8077 -16.6025 -16.2373 -15.1399
   -14.6499 -14.5558 -14.0395 -13.9153 -13.2323 -13.2288 -12.2203 -12.2093
   -11.9880 -11.7780 -11.5161 -11.2960 -10.7263 -10.3418  -9.7747  -9.7298
    -9.6915  -9.6677  -9.3592  -9.3208  -9.1518  -8.9874  -8.8163  -8.7702
    -8.6596  -8.6362  -8.5098  -8.4762  -8.1578  -7.8202  -7.5230  -7.3357
    -7.3350  -6.9710  -6.7655  -6.7428  -6.4288  -6.3936  -6.1457  -6.0461
    -5.7557  -5.1605  -4.7578  -4.4991  -4.4508  -3.9791  -3.7602  -1.0517
    -0.7414  -0.5521  -0.0606   0.2744   0.4477   0.5269   0.7182   1.0018
     1.4501   1.6190   1.6830   1.9250

          k = 0.0833-0.1443 0.0000 ( 31876 PWs)   bands (ev):

   -21.4321 -21.4184 -20.4641 -20.4520 -19.5597 -18.5768 -18.5710 -18.5633
   -18.5564 -17.6651 -17.6571 -16.8241 -16.8158 -16.3137 -16.3027 -15.2511
   -15.2491 -13.2399 -13.2359 -13.0835 -13.0833 -13.0780 -13.0753 -13.0105
   -13.0006 -11.3962 -11.3797 -11.2880 -10.7056 -10.6976  -9.9229  -9.9142
    -9.6758  -9.4878  -9.4534  -9.3235  -9.0931  -9.0864  -9.0785  -9.0709
    -8.7624  -8.6949  -8.3086  -8.2587  -7.5909  -7.5833  -7.2700  -7.2596
    -7.1194  -6.7743  -6.7574  -6.6083  -6.5966  -6.2143  -6.1569  -6.1400
    -6.0921  -5.2095  -5.1254  -4.5466  -4.4205  -4.1264  -4.0610  -0.9084
    -0.8927   0.3443   0.3942   0.4762   0.5273   0.6104   1.0515   1.3518
     1.3656   1.3763   1.3853   1.4069

          k =-0.1667 0.0000 0.0000 ( 31854 PWs)   bands (ev):

   -21.4302 -21.4203 -19.9894 -19.9845 -19.9832 -19.9699 -19.5419 -17.6639
   -17.6587 -16.8410 -16.8257 -16.7239 -16.7190 -16.3161 -16.2994 -15.6370
   -15.6352 -15.2599 -15.2419 -13.2352 -13.2170 -13.0067 -13.0047 -11.3889
   -11.3878 -11.2636 -10.7074 -10.6954 -10.2715 -10.2700 -10.2638 -10.2632
    -9.6849  -9.4801  -9.4669  -9.3239  -8.9430  -8.9425  -8.9065  -8.9046
    -8.9035  -8.8994  -8.7403  -8.7101  -7.9431  -7.7222  -7.7098  -7.7044
    -7.2708  -7.2573  -6.9162  -6.7439  -6.7227  -6.6099  -6.5962  -5.2595
    -5.0982  -4.7960  -4.7794  -4.5573  -4.4023  -4.1210  -4.0714  -0.9281
    -0.8748  -0.6604  -0.6554   0.3493   0.4340   0.5433   0.5696   0.6250
     0.8718   1.3709   1.4122   2.1892

          k =-0.1667 0.0722 0.0000 ( 31908 PWs)   bands (ev):

   -21.3389 -21.3291 -20.6127 -20.6040 -19.5623 -19.1859 -19.1657 -17.5820
   -17.5767 -17.1548 -17.1467 -16.9936 -16.9817 -16.8148 -16.8077 -15.2362
   -15.2358 -14.3120 -14.2960 -13.5615 -13.5588 -13.2303 -13.2147 -11.5190
   -11.5063 -11.2574 -10.8192 -10.8191 -10.6040 -10.5920  -9.7395  -9.7282
    -9.6822  -9.3856  -9.3625  -9.3244  -9.2505  -9.2491  -9.2108  -9.2092
    -8.7810  -8.7650  -8.4459  -8.4158  -7.8996  -7.8961  -7.6331  -7.6243
    -7.1969  -6.8597  -6.7677  -6.6940  -6.6450  -6.6363  -6.6321  -5.2222
    -5.0590  -4.8872  -4.8639  -4.7689  -4.7086  -4.3506  -4.3397  -0.5115
    -0.5045  -0.2782  -0.2392   0.2178   0.2707   0.5681   0.5724   0.6634
     0.9848   1.5007   1.5256   1.6862

          k =-0.1667-0.1443 0.0000 ( 31784 PWs)   bands (ev):

   -21.0730 -21.0623 -21.0584 -21.0500 -19.5578 -18.2331 -18.2292 -18.2238
   -18.2107 -17.3503 -17.3470 -17.3406 -17.3247 -16.8205 -16.8143 -14.4529
   -14.4522 -14.4399 -14.4392 -13.2337 -13.2172 -12.9233 -12.9174 -12.9053
   -12.9020 -11.2512 -10.2981 -10.2884 -10.2792 -10.2654  -9.9303  -9.9267
    -9.9118  -9.9069  -9.6861  -9.3249  -9.1346  -9.1110  -9.0729  -8.9890
    -8.6529  -8.6140  -8.3740  -8.3726  -8.3725  -8.3641  -7.0955  -7.0545
    -7.0527  -7.0500  -7.0434  -6.7602  -6.7309  -5.8790  -5.7697  -5.7423
    -5.6815  -5.1465  -4.9557  -4.9419  -4.9173  -4.4133  -4.3489  -0.1979
    -0.1428  -0.1065  -0.0956   0.4819   0.5573   0.7767   1.0744   1.0879
     1.1010   1.1170   1.1589   1.3848

          k =-0.0833 0.0722 0.0000 ( 31951 PWs)   bands (ev):

   -21.6996 -20.9702 -20.7287 -20.0110 -19.5861 -19.5028 -18.8275 -18.5966
   -18.1389 -17.4775 -16.8924 -16.8188 -16.8082 -16.6028 -16.2372 -15.1400
   -14.6500 -14.5560 -14.0392 -13.9154 -13.2324 -13.2281 -12.2207 -12.2096
   -11.9878 -11.7781 -11.5164 -11.2956 -10.7263 -10.3418  -9.7747  -9.7283
    -9.6914  -9.6708  -9.3577  -9.3218  -9.1517  -8.9865  -8.8165  -8.7713
    -8.6607  -8.6349  -8.5058  -8.4767  -8.1579  -7.8148  -7.5232  -7.3418
    -7.3353  -6.9837  -6.7760  -6.7356  -6.4288  -6.3762  -6.1444  -6.0461
    -5.7551  -5.1643  -4.7612  -4.4952  -4.4503  -3.9802  -3.7590  -1.0546
    -0.7388  -0.5564  -0.0721   0.2680   0.4563   0.5351   0.7307   1.0016
     1.4366   1.5841   1.6815   1.9288

     the Fermi energy is    -2.3664 ev

!    total energy              =    -351.25707154 Ry
     Harris-Foulkes estimate   =    -351.25707178 Ry
     estimated scf accuracy    <       0.00000040 Ry

     The total energy is the sum of the following terms:

     one-electron contribution =   -4816.24721393 Ry
     hartree contribution      =    2428.09975034 Ry
     xc contribution           =    -112.31095610 Ry
     ewald contribution        =    2149.20416902 Ry
     smearing contrib. (-TS)   =      -0.00282087 Ry

     convergence has been achieved in   9 iterations

     Forces acting on atoms (cartesian axes, Ry/au):

     atom    1 type  1   force =     0.00074254    0.00125515    0.00042789
     atom    2 type  1   force =    -0.00013063   -0.00071510    0.00172073
     atom    3 type  1   force =    -0.00026054    0.00180779    0.00003894
     atom    4 type  1   force =     0.00019503   -0.00050959   -0.00483079
     atom    5 type  1   force =     0.00075555   -0.00032778   -0.00192184
     atom    6 type  1   force =    -0.00003450   -0.00081267    0.00078662
     atom    7 type  1   force =     0.00004670    0.00020652    0.00077560
     atom    8 type  1   force =    -0.00026998   -0.00029626    0.00076080
     atom    9 type  1   force =     0.00016573    0.00147666   -0.00211899
     atom   10 type  1   force =     0.00053141    0.00033627   -0.00510411
     atom   11 type  1   force =     0.00118091    0.00077134   -0.00848811
     atom   12 type  1   force =    -0.00000094   -0.00043304   -0.00987440
     atom   13 type  1   force =    -0.00002555   -0.00027845   -0.00869872
     atom   14 type  1   force =     0.00099211   -0.00085530   -0.00508171
     atom   15 type  1   force =     0.00043669   -0.00108543    0.00061204
     atom   16 type  1   force =     0.00016392    0.00039924    0.00129452
     atom   17 type  1   force =    -0.00057129    0.00101062   -0.00006596
     atom   18 type  1   force =    -0.00076907    0.00018840   -0.00506709
     atom   19 type  1   force =    -0.00118675    0.00076261   -0.00848982
     atom   20 type  1   force =    -0.00013457   -0.00082717   -0.00490636
     atom   21 type  1   force =    -0.00093877   -0.00004999   -0.00191795
     atom   22 type  1   force =    -0.00067350   -0.00092628   -0.00504812
     atom   23 type  1   force =    -0.00030524   -0.00086973    0.00009880
     atom   24 type  1   force =     0.00010081   -0.00019194    0.00063697
     atom   25 type  1   force =     0.00095306   -0.00363874    0.00992168
     atom   26 type  1   force =     0.00088391   -0.00506082    0.01087243
     atom   27 type  1   force =    -0.00361348    0.00165228    0.00993924
     atom   28 type  1   force =    -0.00584353    0.00117086    0.01087585
     atom   29 type  1   force =     0.00370841    0.00204732    0.00990746
     atom   30 type  1   force =     0.00392070    0.00378983    0.01090260
     atom   31 type  2   force =    -0.00370650    0.00359608    0.00014452
     atom   32 type  2   force =     0.00140641    0.00521611    0.00046674
     atom   33 type  2   force =     0.00503771    0.00098646    0.00023310
     atom   34 type  2   force =     0.00397418   -0.00383661    0.00047297
     atom   35 type  2   force =    -0.00133631   -0.00486570    0.00014807
     atom   36 type  2   force =    -0.00539466   -0.00109293    0.00057638

     Total force =     0.038345     Total SCF correction =     0.001417

     BFGS Geometry Optimization

     number of scf cycles    =   1
     number of bfgs steps    =   0

     energy   new            =    -351.2570715426 Ry

     new trust radius        =       0.0124016821 bohr
     new conv_thr            =       0.0000010000 Ry


ATOMIC_POSITIONS (angstrom)
C        1.230392936   0.000664194   0.000226432
C       -0.000069127   0.709762417   0.000910572
C       -0.000137870   2.131379134   0.000020608
C        1.230103206   2.840293660  -0.002556343
C        1.230399818   4.260671532  -0.001016995
C       -0.000018256   4.970555774   0.000416259
C        0.000024714   6.391376766   0.000410430
C        1.229857132   7.101251537   0.000402600
C        3.690087703   0.000781415  -0.001121320
C        2.460281211   0.710318780  -0.002700979
C        2.460624908   2.130830669  -0.004491714
C        3.689999505   2.840334169  -0.005225310
C        3.689986480   4.260697637  -0.004603164
C        2.460525001   4.970533215  -0.002689127
C        2.460231084   6.390693096   0.000323878
C        3.690086743   7.101619581   0.000685031
C        6.149697687   0.000534797  -0.000034904
C        4.919593028   0.710240527  -0.002681391
C        4.919371998   2.130826047  -0.004492617
C        6.149928791   2.840125605  -0.002596332
C        6.149503225   4.260818534  -0.001014937
C        4.919643598   4.970495650  -0.002671347
C        4.919838472   6.390807239   0.000052285
C        6.150053349   7.101306740   0.000337071
C        4.676819881   1.852322241   3.005250329
C        3.329610255   1.490704974   3.005753440
C        2.340907551   2.480580186   3.005259618
C        2.700592196   3.827498459   3.005755249
C        4.052819898   4.188826996   3.005242802
C        5.039255022   3.203426305   3.005769409
H        5.445628736   1.084876159   3.000076477
H        3.047474242   0.442748663   3.000246988
H        1.292090935   2.197815336   3.000123354
H        1.934512918   4.596123209   3.000250282
H        4.332562857   5.238563412   3.000078357
H        6.087720178   3.483254971   3.000305007



     Writing output data file batch_graph+benzene.save/
     NEW-OLD atomic charge density approx. for the potential

     negative rho (up, down):  2.138E-04 0.000E+00

     total cpu time spent up to now is      329.8 secs

     Self-consistent Calculation

     iteration #  1     ecut=    32.00 Ry     beta= 0.50
     Davidson diagonalization with overlap
     ethr =  1.00E-06,  avg # of iterations =  3.0

     negative rho (up, down):  2.140E-04 0.000E+00

     total cpu time spent up to now is      371.5 secs

     total energy              =    -351.25821842 Ry
     Harris-Foulkes estimate   =    -351.25834214 Ry
     estimated scf accuracy    <       0.00028540 Ry

     iteration #  2     ecut=    32.00 Ry     beta= 0.50
     Davidson diagonalization with overlap
     ethr =  2.27E-07,  avg # of iterations =  2.0

     negative rho (up, down):  2.141E-04 0.000E+00

     total cpu time spent up to now is      400.9 secs

     total energy              =    -351.25826027 Ry
     Harris-Foulkes estimate   =    -351.25826750 Ry
     estimated scf accuracy    <       0.00003234 Ry

     iteration #  3     ecut=    32.00 Ry     beta= 0.50
     Davidson diagonalization with overlap
     ethr =  2.57E-08,  avg # of iterations =  2.0

     negative rho (up, down):  2.145E-04 0.000E+00

     total cpu time spent up to now is      430.3 secs

     total energy              =    -351.25826459 Ry
     Harris-Foulkes estimate   =    -351.25826584 Ry
     estimated scf accuracy    <       0.00000726 Ry

     iteration #  4     ecut=    32.00 Ry     beta= 0.50
     Davidson diagonalization with overlap
     ethr =  5.76E-09,  avg # of iterations =  2.1

     negative rho (up, down):  2.145E-04 0.000E+00

     total cpu time spent up to now is      459.4 secs

     total energy              =    -351.25826579 Ry
     Harris-Foulkes estimate   =    -351.25826620 Ry
     estimated scf accuracy    <       0.00000194 Ry

     iteration #  5     ecut=    32.00 Ry     beta= 0.50
     Davidson diagonalization with overlap
     ethr =  1.54E-09,  avg # of iterations =  2.4

     negative rho (up, down):  2.141E-04 0.000E+00

     total cpu time spent up to now is      487.4 secs

     End of self-consistent calculation

          k = 0.0000 0.0000 0.0000 ( 31971 PWs)   bands (ev):

   -21.9174 -20.4641 -20.4595 -19.9902 -19.9805 -19.5294 -18.5752 -18.5729
   -18.5686 -18.5666 -16.8209 -16.8113 -16.7259 -15.6376 -15.0664 -15.0630
   -15.0619 -15.0601 -13.2692 -13.2460 -13.0886 -13.0869 -13.0841 -13.0816
   -12.9449 -12.9440 -11.3499 -10.2766 -10.2728 -10.0122  -9.9210  -9.9195
    -9.7132  -9.3062  -9.0920  -9.0915  -9.0809  -9.0791  -8.9477  -8.9044
    -8.9040  -8.7632  -8.6643  -8.3901  -8.2180  -7.8258  -7.7062  -7.5951
    -7.5941  -7.0284  -6.7940  -6.7847  -6.2156  -6.2031  -6.1226  -6.0683
    -5.6252  -5.6136  -4.7984  -4.4743  -4.4577  -2.3758  -2.3705  -2.3679
    -2.3675  -0.6579  -0.0438   0.4091   0.5106   0.6980   1.3525   1.3577
     1.3741   1.3964   1.5821   1.9860

          k = 0.0000 0.0722 0.0000 ( 31929 PWs)   bands (ev):

   -21.8257 -21.0950 -19.9024 -19.8909 -19.6652 -19.5233 -19.1809 -19.1755
   -17.8068 -17.8049 -17.5915 -16.8115 -16.8103 -15.9350 -15.9342 -14.6488
   -14.5343 -14.5342 -13.6886 -13.6877 -13.2580 -13.2380 -12.4260 -12.4248
   -12.3628 -12.3614 -11.5540 -11.3416 -10.7353 -10.7323 -10.1283 -10.1275
    -9.9124  -9.7143  -9.3051  -9.1114  -8.8571  -8.6716  -8.6627  -8.5930
    -8.5908  -8.4210  -8.4208  -8.3432  -8.1584  -7.7826  -7.6138  -7.4212
    -7.0876  -6.9491  -6.9043  -6.7872  -6.7006  -6.6512  -5.9787  -5.8159
    -5.4046  -5.3697  -5.2651  -4.4719  -4.4632  -3.3801  -3.3664  -1.3989
    -1.3833  -0.0274   0.0964   0.3224   0.4346   0.5434   0.6089   0.8277
     1.3109   1.7899   1.8638   2.2064

          k = 0.0000-0.1443 0.0000 ( 31940 PWs)   bands (ev):

   -21.5569 -21.5449 -19.6661 -19.6334 -19.6302 -19.6163 -19.4899 -18.6892
   -18.6818 -16.9371 -16.9226 -16.9065 -16.9062 -16.7940 -16.7834 -14.1600
   -14.1587 -14.1476 -14.1469 -13.2652 -13.2380 -13.1558 -13.1469 -11.5517
   -11.5499 -11.5446 -11.5437 -11.3440 -11.3285 -11.3227 -11.3216 -11.3178
    -9.7163  -9.6180  -9.5993  -9.3045  -8.6986  -8.6608  -8.5974  -8.5780
    -8.2872  -8.2865  -8.2764  -8.2751  -7.6266  -7.3371  -7.3319  -7.3190
    -6.9767  -6.9525  -6.9172  -6.7583  -6.7313  -6.3448  -6.3177  -6.3024
    -6.2211  -4.7403  -4.6693  -4.3980  -4.3837  -4.2272  -4.1567  -0.5083
    -0.4543  -0.4478  -0.4344   0.3400   0.4739   0.5106   0.8773   1.1975
     1.2569   1.4292   1.4740   2.0666

          k = 0.0833 0.0000 0.0000 ( 31951 PWs)   bands (ev):

   -21.7951 -20.8231 -20.3447 -20.3397 -19.5497 -19.3886 -19.3708 -18.9189
   -17.5647 -17.5630 -16.8208 -16.8156 -16.6254 -16.2769 -15.7922 -15.5368
   -14.8868 -14.6291 -14.6278 -14.1358 -13.2441 -13.2410 -12.4102 -12.1693
   -11.7165 -11.4953 -11.4942 -11.3127 -10.1834  -9.9463  -9.9451  -9.8776
    -9.7199  -9.4564  -9.3062  -9.1614  -9.1608  -8.9852  -8.9847  -8.8744
    -8.7546  -8.7385  -8.6017  -8.2265  -8.0996  -8.0498  -8.0488  -7.6647
    -7.2847  -7.0792  -6.8671  -6.7563  -6.7324  -6.4513  -6.0982  -5.8741
    -5.2781  -5.2488  -4.6848  -4.5010  -4.4213  -3.6457  -3.3884  -1.4164
    -1.0893  -0.7022  -0.0469  -0.0297   0.1613   0.4912   0.5436   0.8720
     1.5224   1.7413   2.1534   2.1942

          k = 0.0833 0.0722 0.0000 ( 31951 PWs)   bands (ev):

   -21.7035 -20.9740 -20.7326 -20.0145 -19.5726 -19.4953 -18.8317 -18.6006
   -18.1430 -17.4815 -16.8926 -16.8167 -16.8058 -16.6070 -16.2411 -15.1454
   -14.6558 -14.5577 -14.0415 -13.9205 -13.2420 -13.2409 -12.2265 -12.2131
   -11.9944 -11.7807 -11.5178 -11.3065 -10.7315 -10.3465  -9.7769  -9.7372
    -9.7163  -9.6866  -9.3651  -9.3046  -9.1589  -8.9900  -8.8234  -8.7730
    -8.6685  -8.6439  -8.5168  -8.4772  -8.1610  -7.8196  -7.5242  -7.3436
    -7.3333  -6.9685  -6.7745  -6.7580  -6.4343  -6.3967  -6.1486  -6.0494
    -5.7584  -5.1638  -4.7556  -4.4965  -4.4511  -3.9855  -3.7634  -1.0580
    -0.7426  -0.5581  -0.0607   0.2795   0.4381   0.5170   0.7092   1.0007
     1.4542   1.6203   1.6801   1.9221

          k = 0.0833-0.1443 0.0000 ( 31876 PWs)   bands (ev):

   -21.4351 -21.4231 -20.4671 -20.4567 -19.5344 -18.5793 -18.5744 -18.5685
   -18.5614 -17.6679 -17.6622 -16.8218 -16.8098 -16.3170 -16.3061 -15.2564
   -15.2558 -13.2489 -13.2473 -13.0895 -13.0859 -13.0814 -13.0789 -13.0129
   -13.0046 -11.4000 -11.3874 -11.2985 -10.7083 -10.7010  -9.9273  -9.9216
    -9.7220  -9.4887  -9.4563  -9.3061  -9.0977  -9.0896  -9.0818  -9.0795
    -8.7733  -8.7043  -8.3102  -8.2621  -7.5951  -7.5838  -7.2742  -7.2590
    -7.1092  -6.7830  -6.7725  -6.6134  -6.6058  -6.2156  -6.1597  -6.1431
    -6.0988  -5.2084  -5.1305  -4.5429  -4.4195  -4.1300  -4.0649  -0.9145
    -0.8990   0.3409   0.3898   0.4758   0.5207   0.6008   1.0583   1.3491
     1.3627   1.3723   1.3799   1.4053

          k =-0.1667 0.0000 0.0000 ( 31854 PWs)   bands (ev):

   -21.4324 -21.4259 -19.9917 -19.9867 -19.9853 -19.9772 -19.5183 -17.6678
   -17.6628 -16.8389 -16.8192 -16.7270 -16.7227 -16.3200 -16.3073 -15.6431
   -15.6410 -15.2578 -15.2450 -13.2475 -13.2264 -13.0137 -13.0119 -11.3900
   -11.3890 -11.2743 -10.7147 -10.7015 -10.2717 -10.2705 -10.2695 -10.2662
    -9.7309  -9.4814  -9.4691  -9.3066  -8.9454  -8.9445  -8.9134  -8.9125
    -8.9087  -8.9063  -8.7529  -8.7199  -7.9366  -7.7242  -7.7127  -7.7099
    -7.2816  -7.2657  -6.9132  -6.7593  -6.7326  -6.6066  -6.5972  -5.2563
    -5.1010  -4.7970  -4.7776  -4.5537  -4.4050  -4.1278  -4.0794  -0.9259
    -0.8762  -0.6670  -0.6618   0.3426   0.4282   0.5334   0.5698   0.6138
     0.8774   1.3698   1.4119   2.1939

          k =-0.1667 0.0722 0.0000 ( 31908 PWs)   bands (ev):

   -21.3411 -21.3347 -20.6148 -20.6095 -19.5372 -19.1879 -19.1714 -17.5859
   -17.5808 -17.1571 -17.1524 -16.9965 -16.9852 -16.8139 -16.8023 -15.2418
   -15.2412 -14.3115 -14.3003 -13.5673 -13.5647 -13.2427 -13.2241 -11.5185
   -11.5104 -11.2682 -10.8215 -10.8212 -10.6114 -10.5982  -9.7526  -9.7366
    -9.7207  -9.3865  -9.3649  -9.3080  -9.2546  -9.2520  -9.2136  -9.2122
    -8.7878  -8.7762  -8.4497  -8.4194  -7.9030  -7.9024  -7.6417  -7.6303
    -7.1883  -6.8651  -6.7777  -6.7035  -6.6468  -6.6399  -6.6362  -5.2182
    -5.0611  -4.8848  -4.8657  -4.7726  -4.7134  -4.3542  -4.3422  -0.5175
    -0.5109  -0.2776  -0.2407   0.2120   0.2646   0.5554   0.5622   0.6628
     0.9898   1.4989   1.5250   1.6903

          k =-0.1667-0.1443 0.0000 ( 31784 PWs)   bands (ev):

   -21.0747 -21.0665 -21.0610 -21.0569 -19.5324 -18.2353 -18.2310 -18.2285
   -18.2180 -17.3528 -17.3507 -17.3445 -17.3301 -16.8190 -16.8083 -14.4579
   -14.4557 -14.4478 -14.4446 -13.2459 -13.2264 -12.9222 -12.9176 -12.9098
   -12.9065 -11.2622 -10.3034 -10.2920 -10.2889 -10.2745  -9.9329  -9.9313
    -9.9131  -9.9096  -9.7317  -9.3080  -9.1328  -9.1151  -9.0769  -8.9909
    -8.6637  -8.6236  -8.3822  -8.3778  -8.3748  -8.3700  -7.0852  -7.0585
    -7.0570  -7.0509  -7.0469  -6.7741  -6.7422  -5.8780  -5.7734  -5.7449
    -5.6898  -5.1425  -4.9574  -4.9452  -4.9202  -4.4115  -4.3524  -0.2012
    -0.1502  -0.1116  -0.1039   0.4717   0.5475   0.7747   1.0720   1.0857
     1.0994   1.1152   1.1608   1.3903

          k =-0.0833 0.0722 0.0000 ( 31951 PWs)   bands (ev):

   -21.7035 -20.9740 -20.7326 -20.0145 -19.5727 -19.4952 -18.8317 -18.6006
   -18.1430 -17.4816 -16.8935 -16.8164 -16.8049 -16.6073 -16.2409 -15.1455
   -14.6560 -14.5579 -14.0413 -13.9206 -13.2420 -13.2403 -12.2268 -12.2135
   -11.9943 -11.7807 -11.5181 -11.3062 -10.7314 -10.3464  -9.7768  -9.7329
    -9.7213  -9.6875  -9.3642  -9.3051  -9.1588  -8.9892  -8.8238  -8.7739
    -8.6691  -8.6428  -8.5131  -8.4776  -8.1612  -7.8144  -7.5243  -7.3439
    -7.3396  -6.9808  -6.7901  -6.7449  -6.4342  -6.3801  -6.1473  -6.0495
    -5.7580  -5.1675  -4.7584  -4.4932  -4.4508  -3.9865  -3.7622  -1.0609
    -0.7402  -0.5622  -0.0720   0.2729   0.4476   0.5241   0.7214   1.0005
     1.4406   1.5860   1.6784   1.9249

     the Fermi energy is    -2.3704 ev

!    total energy              =    -351.25826611 Ry
     Harris-Foulkes estimate   =    -351.25826623 Ry
     estimated scf accuracy    <       0.00000027 Ry

     The total energy is the sum of the following terms:

     one-electron contribution =   -4813.31493676 Ry
     hartree contribution      =    2426.62718297 Ry
     xc contribution           =    -112.31685207 Ry
     ewald contribution        =    2147.74916031 Ry
     smearing contrib. (-TS)   =      -0.00282055 Ry

     convergence has been achieved in   5 iterations

     Forces acting on atoms (cartesian axes, Ry/au):

     atom    1 type  1   force =    -0.00005360   -0.00053798    0.00025161
     atom    2 type  1   force =    -0.00010732    0.00060225    0.00238358
     atom    3 type  1   force =    -0.00015532    0.00065126   -0.00062455
     atom    4 type  1   force =     0.00054906    0.00044709   -0.00431802
     atom    5 type  1   force =     0.00001400   -0.00049920   -0.00232422
     atom    6 type  1   force =    -0.00005866   -0.00126969    0.00117182
     atom    7 type  1   force =    -0.00000533   -0.00010348    0.00148886
     atom    8 type  1   force =     0.00064515    0.00018804    0.00088776
     atom    9 type  1   force =     0.00003103    0.00084692   -0.00342217
     atom   10 type  1   force =     0.00048003    0.00111097   -0.00456685
     atom   11 type  1   force =    -0.00015466   -0.00041203   -0.00793538
     atom   12 type  1   force =     0.00000796    0.00049093   -0.00988918
     atom   13 type  1   force =     0.00012868   -0.00081949   -0.00867700
     atom   14 type  1   force =     0.00028076   -0.00044427   -0.00450705
     atom   15 type  1   force =     0.00018328    0.00010681    0.00019885
     atom   16 type  1   force =     0.00019530    0.00043791    0.00187186
     atom   17 type  1   force =    -0.00016524   -0.00048352   -0.00009981
     atom   18 type  1   force =    -0.00023550    0.00109347   -0.00465618
     atom   19 type  1   force =     0.00008003   -0.00054888   -0.00793204
     atom   20 type  1   force =    -0.00083534    0.00068239   -0.00433730
     atom   21 type  1   force =     0.00011249   -0.00071063   -0.00232213
     atom   22 type  1   force =    -0.00039485   -0.00026849   -0.00457210
     atom   23 type  1   force =    -0.00006350   -0.00001732   -0.00016785
     atom   24 type  1   force =    -0.00042724    0.00010850    0.00066987
     atom   25 type  1   force =    -0.00302125    0.00440544    0.00941581
     atom   26 type  1   force =     0.00088854    0.00629579    0.00984252
     atom   27 type  1   force =     0.00474156   -0.00020278    0.00944128
     atom   28 type  1   force =     0.00570114   -0.00337378    0.00984436
     atom   29 type  1   force =    -0.00326542   -0.00460786    0.00940202
     atom   30 type  1   force =    -0.00510570   -0.00285356    0.00987656
     atom   31 type  2   force =     0.00021464   -0.00035970    0.00040072
     atom   32 type  2   force =    -0.00024712   -0.00112983    0.00073762
     atom   33 type  2   force =    -0.00022250   -0.00040177    0.00048395
     atom   34 type  2   force =    -0.00089962    0.00081111    0.00073976
     atom   35 type  2   force =     0.00011793    0.00014144    0.00040457
     atom   36 type  2   force =     0.00104656    0.00062393    0.00083846

     Total force =     0.035143     Total SCF correction =     0.001331

     number of scf cycles    =   2
     number of bfgs steps    =   1

     energy   old            =    -351.2570715426 Ry
     energy   new            =    -351.2582661062 Ry

     CASE: energy  _new < energy  _old

     new trust radius        =       0.0136418503 bohr
     new conv_thr            =       0.0000009889 Ry


ATOMIC_POSITIONS (angstrom)
C        1.230655460   0.000967666   0.000466294
C       -0.000151920   0.709682254   0.002305288
C       -0.000284581   2.132263405  -0.000160580
C        1.230348738   2.840242154  -0.005727578
C        1.230688430   4.260391695  -0.002468751
C       -0.000049626   4.969851932   0.001079611
C        0.000040612   6.391422008   0.001169052
C        1.229957865   7.101199050   0.000967171
C        3.690159778   0.001602471  -0.002991518
C        2.460631639   0.710793642  -0.006053056
C        2.461020648   2.130991635  -0.010173045
C        3.690001648   2.840325207  -0.012040782
C        3.690017219   4.260335925  -0.010596270
C        2.460986251   4.970072161  -0.006014029
C        2.460452828   6.390318269   0.000616468
C        3.690209646   7.101907081   0.001758956
C        6.149430965   0.000763360  -0.000091014
C        4.919229876   0.710654273  -0.006047555
C        4.918950657   2.130940816  -0.010173544
C        6.149616236   2.840028411  -0.005802040
C        6.149185350   4.260576902  -0.002464575
C        4.919266427   4.970063011  -0.006004007
C        4.919703732   6.390474632   0.000036823
C        6.149957305   7.101268556   0.000786737
C        4.676231049   1.852334800   3.011935157
C        3.330221381   1.490775319   3.012929721
C        2.341035008   2.481138161   3.011959033
C        2.700181641   3.826881018   3.012933392
C        4.053191019   4.188152298   3.011917952
C        5.039128953   3.203957198   3.012967714
H        5.444301722   1.086116152   3.000256494
H        3.047925824   0.444356596   3.000653860
H        1.293916265   2.198060445   3.000362794
H        1.935725848   4.594934282   3.000660166
H        4.332097141   5.236777373   3.000260920
H        6.086018969   3.483039471   3.000784742



     Writing output data file batch_graph+benzene.save/
     NEW-OLD atomic charge density approx. for the potential

     negative rho (up, down):  2.135E-04 0.000E+00

     total cpu time spent up to now is      502.4 secs

     Self-consistent Calculation

     iteration #  1     ecut=    32.00 Ry     beta= 0.50
     Davidson diagonalization with overlap
     ethr =  1.00E-06,  avg # of iterations =  3.6

     negative rho (up, down):  2.137E-04 0.000E+00

     total cpu time spent up to now is      545.9 secs

     total energy              =    -351.25947118 Ry
     Harris-Foulkes estimate   =    -351.25962675 Ry
     estimated scf accuracy    <       0.00034922 Ry

     iteration #  2     ecut=    32.00 Ry     beta= 0.50
     Davidson diagonalization with overlap
     ethr =  2.77E-07,  avg # of iterations =  2.0

     negative rho (up, down):  2.141E-04 0.000E+00

     total cpu time spent up to now is      576.5 secs

     total energy              =    -351.25953217 Ry
     Harris-Foulkes estimate   =    -351.25954119 Ry
     estimated scf accuracy    <       0.00003990 Ry

     iteration #  3     ecut=    32.00 Ry     beta= 0.50
     Davidson diagonalization with overlap
     ethr =  3.17E-08,  avg # of iterations =  2.0

     negative rho (up, down):  2.146E-04 0.000E+00

     total cpu time spent up to now is      605.8 secs

     total energy              =    -351.25953845 Ry
     Harris-Foulkes estimate   =    -351.25953878 Ry
     estimated scf accuracy    <       0.00000786 Ry

     iteration #  4     ecut=    32.00 Ry     beta= 0.50
     Davidson diagonalization with overlap
     ethr =  6.24E-09,  avg # of iterations =  2.0

     negative rho (up, down):  2.151E-04 0.000E+00

     total cpu time spent up to now is      634.9 secs

     total energy              =    -351.25953957 Ry
     Harris-Foulkes estimate   =    -351.25953958 Ry
     estimated scf accuracy    <       0.00000120 Ry

     iteration #  5     ecut=    32.00 Ry     beta= 0.50
     Davidson diagonalization with overlap
     ethr =  9.50E-10,  avg # of iterations =  2.2

     negative rho (up, down):  2.139E-04 0.000E+00

     total cpu time spent up to now is      663.8 secs

     End of self-consistent calculation

          k = 0.0000 0.0000 0.0000 ( 31971 PWs)   bands (ev):

   -21.9208 -20.4672 -20.4631 -19.9935 -19.9837 -19.5325 -18.5786 -18.5762
   -18.5719 -18.5710 -16.8227 -16.8153 -16.7304 -15.6400 -15.0717 -15.0671
   -15.0659 -15.0611 -13.2729 -13.2499 -13.0931 -13.0906 -13.0887 -13.0848
   -12.9493 -12.9476 -11.3568 -10.2828 -10.2767 -10.0141  -9.9240  -9.9215
    -9.7206  -9.3063  -9.0940  -9.0926  -9.0853  -9.0846  -8.9523  -8.9076
    -8.9053  -8.7664  -8.6703  -8.3888  -8.2204  -7.8265  -7.7081  -7.6007
    -7.5985  -7.0378  -6.7957  -6.7859  -6.2158  -6.2039  -6.1261  -6.0754
    -5.6312  -5.6152  -4.8004  -4.4797  -4.4634  -2.3817  -2.3736  -2.3719
    -2.3685  -0.6601  -0.0400   0.4102   0.5120   0.6958   1.3483   1.3532
     1.3706   1.3914   1.5829   1.9879

          k = 0.0000 0.0722 0.0000 ( 31929 PWs)   bands (ev):

   -21.8290 -21.0983 -19.9056 -19.8941 -19.6678 -19.5268 -19.1842 -19.1798
   -17.8104 -17.8082 -17.5951 -16.8154 -16.8128 -15.9385 -15.9379 -14.6515
   -14.5386 -14.5374 -13.6931 -13.6910 -13.2624 -13.2423 -12.4298 -12.4280
   -12.3678 -12.3646 -11.5567 -11.3486 -10.7409 -10.7358 -10.1314 -10.1311
    -9.9141  -9.7218  -9.3053  -9.1129  -8.8617  -8.6739  -8.6682  -8.5969
    -8.5926  -8.4252  -8.4228  -8.3460  -8.1634  -7.7811  -7.6155  -7.4232
    -7.0923  -6.9544  -6.9058  -6.7898  -6.7019  -6.6615  -5.9804  -5.8218
    -5.4047  -5.3711  -5.2694  -4.4774  -4.4685  -3.3839  -3.3709  -1.4018
    -1.3871  -0.0285   0.0997   0.3234   0.4325   0.5423   0.6034   0.8253
     1.3138   1.7910   1.8623   2.2059

          k = 0.0000-0.1443 0.0000 ( 31940 PWs)   bands (ev):

   -21.5577 -21.5507 -19.6693 -19.6342 -19.6309 -19.6221 -19.4959 -18.6928
   -18.6853 -16.9384 -16.9249 -16.9105 -16.9102 -16.7989 -16.7873 -14.1617
   -14.1595 -14.1543 -14.1529 -13.2688 -13.2424 -13.1595 -13.1496 -11.5568
   -11.5526 -11.5498 -11.5474 -11.3482 -11.3304 -11.3276 -11.3265 -11.3227
    -9.7237  -9.6200  -9.6004  -9.3047  -8.7010  -8.6665  -8.5984  -8.5869
    -8.2911  -8.2878  -8.2812  -8.2775  -7.6247  -7.3393  -7.3330  -7.3198
    -6.9788  -6.9549  -6.9256  -6.7626  -6.7342  -6.3459  -6.3214  -6.3099
    -6.2273  -4.7375  -4.6683  -4.4015  -4.3879  -4.2352  -4.1665  -0.5102
    -0.4570  -0.4503  -0.4396   0.3420   0.4735   0.5113   0.8803   1.1955
     1.2570   1.4262   1.4703   2.0681

          k = 0.0833 0.0000 0.0000 ( 31951 PWs)   bands (ev):

   -21.7984 -20.8265 -20.3477 -20.3432 -19.5514 -19.3922 -19.3753 -18.9225
   -17.5675 -17.5670 -16.8246 -16.8176 -16.6298 -16.2804 -15.7965 -15.5391
   -14.8890 -14.6331 -14.6318 -14.1403 -13.2483 -13.2456 -12.4130 -12.1737
   -11.7214 -11.4989 -11.4982 -11.3199 -10.1857  -9.9495  -9.9472  -9.8791
    -9.7274  -9.4609  -9.3064  -9.1651  -9.1640  -8.9889  -8.9876  -8.8776
    -8.7595  -8.7419  -8.6044  -8.2264  -8.1020  -8.0555  -8.0532  -7.6667
    -7.2865  -7.0815  -6.8734  -6.7601  -6.7343  -6.4564  -6.1041  -5.8757
    -5.2785  -5.2509  -4.6860  -4.5060  -4.4278  -3.6498  -3.3934  -1.4184
    -1.0933  -0.7044  -0.0503  -0.0328   0.1642   0.4907   0.5425   0.8698
     1.5245   1.7424   2.1517   2.1943

          k = 0.0833 0.0722 0.0000 ( 31951 PWs)   bands (ev):

   -21.7068 -20.9774 -20.7359 -20.0177 -19.5746 -19.4996 -18.8352 -18.6042
   -18.1466 -17.4850 -16.8951 -16.8202 -16.8090 -16.6111 -16.2445 -15.1495
   -14.6601 -14.5605 -14.0444 -13.9245 -13.2462 -13.2455 -12.2309 -12.2166
   -11.9988 -11.7838 -11.5205 -11.3137 -10.7355 -10.3503  -9.7785  -9.7414
    -9.7215  -9.6907  -9.3695  -9.3050  -9.1636  -8.9917  -8.8269  -8.7762
    -8.6707  -8.6489  -8.5195  -8.4797  -8.1645  -7.8200  -7.5268  -7.3487
    -7.3352  -6.9778  -6.7766  -6.7593  -6.4386  -6.3997  -6.1515  -6.0528
    -5.7609  -5.1659  -4.7553  -4.5010  -4.4568  -3.9919  -3.7675  -1.0622
    -0.7448  -0.5624  -0.0624   0.2823   0.4397   0.5165   0.7039   0.9984
     1.4567   1.6219   1.6772   1.9191

          k = 0.0833-0.1443 0.0000 ( 31876 PWs)   bands (ev):

   -21.4359 -21.4290 -20.4680 -20.4625 -19.5370 -18.5808 -18.5779 -18.5722
   -18.5669 -17.6715 -17.6655 -16.8256 -16.8122 -16.3188 -16.3111 -15.2613
   -15.2596 -13.2531 -13.2508 -13.0938 -13.0890 -13.0862 -13.0810 -13.0142
   -13.0101 -11.4014 -11.3944 -11.3059 -10.7100 -10.7057  -9.9310  -9.9264
    -9.7295  -9.4906  -9.4574  -9.3063  -9.0988  -9.0923  -9.0892  -9.0839
    -8.7783  -8.7067  -8.3117  -8.2631  -7.5982  -7.5868  -7.2774  -7.2616
    -7.1171  -6.7852  -6.7734  -6.6172  -6.6115  -6.2166  -6.1629  -6.1450
    -6.1045  -5.2081  -5.1338  -4.5456  -4.4265  -4.1331  -4.0716  -0.9194
    -0.9028   0.3426   0.3912   0.4756   0.5209   0.5965   1.0604   1.3465
     1.3596   1.3691   1.3751   1.4018

          k =-0.1667 0.0000 0.0000 ( 31854 PWs)   bands (ev):

   -21.4342 -21.4307 -19.9948 -19.9895 -19.9861 -19.9834 -19.5220 -17.6709
   -17.6665 -16.8419 -16.8210 -16.7312 -16.7263 -16.3226 -16.3133 -15.6470
   -15.6456 -15.2577 -15.2497 -13.2517 -13.2308 -13.0184 -13.0166 -11.3927
   -11.3913 -11.2818 -10.7197 -10.7053 -10.2752 -10.2747 -10.2703 -10.2699
    -9.7383  -9.4825  -9.4710  -9.3067  -8.9488  -8.9466  -8.9203  -8.9171
    -8.9125  -8.9096  -8.7575  -8.7231  -7.9336  -7.7257  -7.7152  -7.7132
    -7.2885  -7.2701  -6.9268  -6.7604  -6.7352  -6.6065  -6.6011  -5.2541
    -5.1043  -4.7976  -4.7783  -4.5564  -4.4130  -4.1330  -4.0865  -0.9260
    -0.8801  -0.6712  -0.6670   0.3428   0.4259   0.5322   0.5701   0.6102
     0.8802   1.3677   1.4102   2.1954

          k =-0.1667 0.0722 0.0000 ( 31908 PWs)   bands (ev):

   -21.3429 -21.3395 -20.6167 -20.6144 -19.5396 -19.1897 -19.1770 -17.5890
   -17.5845 -17.1589 -17.1574 -16.9989 -16.9891 -16.8187 -16.8052 -15.2459
   -15.2454 -14.3120 -14.3053 -13.5714 -13.5690 -13.2473 -13.2285 -11.5191
   -11.5154 -11.2758 -10.8244 -10.8241 -10.6165 -10.6021  -9.7582  -9.7413
    -9.7273  -9.3875  -9.3671  -9.3082  -9.2594  -9.2539  -9.2172  -9.2152
    -8.7902  -8.7801  -8.4505  -8.4217  -7.9085  -7.9046  -7.6478  -7.6339
    -7.1928  -6.8669  -6.7814  -6.7058  -6.6518  -6.6419  -6.6409  -5.2155
    -5.0638  -4.8838  -4.8664  -4.7767  -4.7167  -4.3640  -4.3511  -0.5218
    -0.5151  -0.2782  -0.2438   0.2104   0.2610   0.5515   0.5619   0.6641
     0.9926   1.4962   1.5230   1.6939

          k =-0.1667-0.1443 0.0000 ( 31784 PWs)   bands (ev):

   -21.0744 -21.0685 -21.0650 -21.0647 -19.5351 -18.2373 -18.2338 -18.2324
   -18.2233 -17.3530 -17.3529 -17.3480 -17.3376 -16.8235 -16.8107 -14.4611
   -14.4591 -14.4526 -14.4495 -13.2503 -13.2305 -12.9219 -12.9192 -12.9152
   -12.9115 -11.2697 -10.3053 -10.2976 -10.2924 -10.2820  -9.9343  -9.9339
    -9.9161  -9.9150  -9.7392  -9.3082  -9.1329  -9.1191  -9.0790  -8.9912
    -8.6677  -8.6258  -8.3883  -8.3825  -8.3775  -8.3729  -7.0943  -7.0629
    -7.0608  -7.0521  -7.0511  -6.7752  -6.7445  -5.8771  -5.7752  -5.7473
    -5.6961  -5.1401  -4.9578  -4.9468  -4.9259  -4.4190  -4.3623  -0.2024
    -0.1539  -0.1157  -0.1095   0.4709   0.5492   0.7759   1.0698   1.0824
     1.0956   1.1117   1.1625   1.3931

          k =-0.0833 0.0722 0.0000 ( 31951 PWs)   bands (ev):

   -21.7068 -20.9774 -20.7359 -20.0177 -19.5747 -19.4995 -18.8352 -18.6042
   -18.1466 -17.4851 -16.8959 -16.8201 -16.8081 -16.6113 -16.2444 -15.1496
   -14.6603 -14.5607 -14.0441 -13.9246 -13.2462 -13.2449 -12.2312 -12.2169
   -11.9987 -11.7838 -11.5208 -11.3134 -10.7355 -10.3502  -9.7785  -9.7366
    -9.7270  -9.6914  -9.3687  -9.3053  -9.1635  -8.9909  -8.8275  -8.7770
    -8.6712  -8.6478  -8.5159  -8.4802  -8.1646  -7.8147  -7.5269  -7.3490
    -7.3415  -6.9897  -6.7911  -6.7477  -6.4385  -6.3833  -6.1501  -6.0528
    -5.7605  -5.1695  -4.7580  -4.4977  -4.4565  -3.9928  -3.7664  -1.0650
    -0.7424  -0.5664  -0.0732   0.2758   0.4486   0.5234   0.7158   0.9981
     1.4433   1.5883   1.6756   1.9217

     the Fermi energy is    -2.3739 ev

!    total energy              =    -351.25953969 Ry
     Harris-Foulkes estimate   =    -351.25953984 Ry
     estimated scf accuracy    <       0.00000026 Ry

     The total energy is the sum of the following terms:

     one-electron contribution =   -4809.86628952 Ry
     hartree contribution      =    2424.89031856 Ry
     xc contribution           =    -112.32197906 Ry
     ewald contribution        =    2146.04123040 Ry
     smearing contrib. (-TS)   =      -0.00282008 Ry

     convergence has been achieved in   5 iterations

     Forces acting on atoms (cartesian axes, Ry/au):

     atom    1 type  1   force =    -0.00039958   -0.00096227    0.00009962
     atom    2 type  1   force =     0.00001233    0.00200095    0.00183104
     atom    3 type  1   force =     0.00009643   -0.00136857   -0.00143116
     atom    4 type  1   force =     0.00034319    0.00070260   -0.00384805
     atom    5 type  1   force =    -0.00025918   -0.00029544   -0.00272220
     atom    6 type  1   force =    -0.00000970   -0.00062540    0.00106047
     atom    7 type  1   force =    -0.00002464   -0.00069136    0.00217605
     atom    8 type  1   force =     0.00076581    0.00028421    0.00098624
     atom    9 type  1   force =    -0.00018762   -0.00104070   -0.00323128
     atom   10 type  1   force =    -0.00005573    0.00085612   -0.00411638
     atom   11 type  1   force =    -0.00085859   -0.00052367   -0.00733497
     atom   12 type  1   force =     0.00001009    0.00048019   -0.00890000
     atom   13 type  1   force =     0.00014192   -0.00044592   -0.00731114
     atom   14 type  1   force =    -0.00037274    0.00015340   -0.00397885
     atom   15 type  1   force =     0.00024679    0.00076388   -0.00021278
     atom   16 type  1   force =     0.00004846    0.00032939    0.00151618
     atom   17 type  1   force =     0.00009562   -0.00081638   -0.00010730
     atom   18 type  1   force =     0.00042107    0.00094553   -0.00429878
     atom   19 type  1   force =     0.00074002   -0.00064162   -0.00733612
     atom   20 type  1   force =    -0.00078035    0.00111315   -0.00383763
     atom   21 type  1   force =     0.00042845   -0.00061777   -0.00272927
     atom   22 type  1   force =     0.00013201    0.00032171   -0.00411213
     atom   23 type  1   force =    -0.00007611    0.00050446   -0.00043071
     atom   24 type  1   force =    -0.00039864    0.00013098    0.00068257
     atom   25 type  1   force =    -0.00251566    0.00601445    0.00874681
     atom   26 type  1   force =    -0.00034136    0.00809669    0.00865676
     atom   27 type  1   force =     0.00626283   -0.00160794    0.00878038
     atom   28 type  1   force =     0.00812071   -0.00314710    0.00866201
     atom   29 type  1   force =    -0.00508172   -0.00480265    0.00873008
     atom   30 type  1   force =    -0.00652036   -0.00485577    0.00870116
     atom   31 type  2   force =     0.00145725   -0.00159286    0.00068787
     atom   32 type  2   force =    -0.00065926   -0.00286641    0.00102205
     atom   33 type  2   force =    -0.00212909   -0.00086011    0.00076506
     atom   34 type  2   force =    -0.00228820    0.00215446    0.00102466
     atom   35 type  2   force =     0.00053027    0.00172919    0.00069120
     atom   36 type  2   force =     0.00310525    0.00118057    0.00111854

     Total force =     0.035238     Total SCF correction =     0.001318

     number of scf cycles    =   3
     number of bfgs steps    =   2

     energy   old            =    -351.2582661062 Ry
     energy   new            =    -351.2595396945 Ry

     CASE: energy  _new < energy  _old

     new trust radius        =       0.0204627755 bohr
     new conv_thr            =       0.0000008900 Ry


ATOMIC_POSITIONS (angstrom)
C        1.230877126   0.001260809   0.000753432
C       -0.000199946   0.710485381   0.004109637
C       -0.000344863   2.132294911  -0.000996066
C        1.230572772   2.840284725  -0.010526909
C        1.231001522   4.260099459  -0.005070759
C       -0.000063133   4.969214127   0.002043277
C        0.000055461   6.391087822   0.002844921
C        1.230150443   7.101153993   0.001940075
C        3.690125695   0.001595125  -0.005784075
C        2.460810680   0.711325252  -0.011159361
C        2.461230964   2.131243909  -0.018923488
C        3.690006089   2.840245215  -0.022300597
C        3.690066696   4.260058090  -0.019260466
C        2.461299654   4.969737349  -0.011022512
C        2.460871923   6.390116604   0.000815007
C        3.690299139   7.102289049   0.003194730
C        6.149165173   0.000983475  -0.000184714
C        4.919087828   0.711156838  -0.011236166
C        4.918671533   2.131140396  -0.018926900
C        6.149196477   2.840089962  -0.010638875
C        6.148836798   4.260296341  -0.005069700
C        4.919023646   4.969753123  -0.011068315
C        4.919462437   6.390264080  -0.000162093
C        6.149856357   7.101204575   0.001518206
C        4.675897752   1.853019347   3.022249333
C        3.330313328   1.491485077   3.023693426
C        2.341821550   2.481133612   3.022302087
C        2.700553791   3.826334967   3.023702672
C        4.052907225   4.187340226   3.022214385
C        5.038463946   3.203775251   3.023774177
H        5.442820448   1.087466274   3.000738749
H        3.048457626   0.446083623   3.001498631
H        1.295802284   2.198209562   3.000936713
H        1.936977025   4.593703089   3.001510386
H        4.331555167   5.234739179   3.000746870
H        6.084369390   3.482988809   3.001744282



     Writing output data file batch_graph+benzene.save/
     NEW-OLD atomic charge density approx. for the potential

     negative rho (up, down):  2.131E-04 0.000E+00

     total cpu time spent up to now is      678.7 secs

     Self-consistent Calculation

     iteration #  1     ecut=    32.00 Ry     beta= 0.50
     Davidson diagonalization with overlap
     ethr =  1.00E-06,  avg # of iterations =  4.0

     negative rho (up, down):  2.132E-04 0.000E+00

     total cpu time spent up to now is      728.5 secs

     total energy              =    -351.26113012 Ry
     Harris-Foulkes estimate   =    -351.26148351 Ry
     estimated scf accuracy    <       0.00079050 Ry

     iteration #  2     ecut=    32.00 Ry     beta= 0.50
     Davidson diagonalization with overlap
     ethr =  6.27E-07,  avg # of iterations =  2.0

     negative rho (up, down):  2.142E-04 0.000E+00

     total cpu time spent up to now is      758.6 secs

     total energy              =    -351.26126679 Ry
     Harris-Foulkes estimate   =    -351.26129181 Ry
     estimated scf accuracy    <       0.00009842 Ry

     iteration #  3     ecut=    32.00 Ry     beta= 0.50
     Davidson diagonalization with overlap
     ethr =  7.81E-08,  avg # of iterations =  2.0

     negative rho (up, down):  2.136E-04 0.000E+00

     total cpu time spent up to now is      788.5 secs

     total energy              =    -351.26128198 Ry
     Harris-Foulkes estimate   =    -351.26128568 Ry
     estimated scf accuracy    <       0.00002303 Ry

     iteration #  4     ecut=    32.00 Ry     beta= 0.50
     Davidson diagonalization with overlap
     ethr =  1.83E-08,  avg # of iterations =  2.0

     negative rho (up, down):  2.149E-04 0.000E+00

     total cpu time spent up to now is      817.5 secs

     total energy              =    -351.26128554 Ry
     Harris-Foulkes estimate   =    -351.26128688 Ry
     estimated scf accuracy    <       0.00000644 Ry

     iteration #  5     ecut=    32.00 Ry     beta= 0.50
     Davidson diagonalization with overlap
     ethr =  5.11E-09,  avg # of iterations =  2.1

     negative rho (up, down):  2.134E-04 0.000E+00

     total cpu time spent up to now is      845.6 secs

     End of self-consistent calculation

          k = 0.0000 0.0000 0.0000 ( 31971 PWs)   bands (ev):

   -21.9256 -20.4718 -20.4680 -19.9979 -19.9885 -19.5413 -18.5837 -18.5811
   -18.5767 -18.5764 -16.8265 -16.8207 -16.7358 -15.6462 -15.0763 -15.0719
   -15.0708 -15.0677 -13.2753 -13.2538 -13.0986 -13.0964 -13.0932 -13.0897
   -12.9546 -12.9532 -11.3642 -10.2866 -10.2814 -10.0167  -9.9296  -9.9279
    -9.7219  -9.3100  -9.0979  -9.0976  -9.0925  -9.0914  -8.9568  -8.9137
    -8.9121  -8.7701  -8.6745  -8.3874  -8.2232  -7.8285  -7.7111  -7.6044
    -7.6032  -7.0545  -6.7955  -6.7866  -6.2168  -6.2057  -6.1309  -6.0854
    -5.6347  -5.6224  -4.8017  -4.4886  -4.4724  -2.3856  -2.3786  -2.3769
    -2.3751  -0.6673  -0.0373   0.4135   0.5143   0.6928   1.3431   1.3472
     1.3651   1.3849   1.5830   1.9901

          k = 0.0000 0.0722 0.0000 ( 31929 PWs)   bands (ev):

   -21.8338 -21.1032 -19.9099 -19.8990 -19.6723 -19.5357 -19.1891 -19.1856
   -17.8156 -17.8130 -17.6000 -16.8207 -16.8175 -15.9441 -15.9429 -14.6573
   -14.5435 -14.5427 -13.6978 -13.6960 -13.2654 -13.2470 -12.4351 -12.4333
   -12.3726 -12.3699 -11.5627 -11.3561 -10.7451 -10.7408 -10.1372 -10.1364
    -9.9163  -9.7230  -9.3090  -9.1151  -8.8661  -8.6763  -8.6720  -8.6028
    -8.5994  -8.4306  -8.4291  -8.3528  -8.1678  -7.7795  -7.6182  -7.4270
    -7.1008  -6.9585  -6.9083  -6.7906  -6.7037  -6.6755  -5.9875  -5.8256
    -5.4049  -5.3733  -5.2746  -4.4863  -4.4773  -3.3892  -3.3776  -1.4063
    -1.3922  -0.0334   0.1022   0.3255   0.4296   0.5416   0.5962   0.8222
     1.3168   1.7906   1.8603   2.2054

          k = 0.0000-0.1443 0.0000 ( 31940 PWs)   bands (ev):

   -21.5620 -21.5562 -19.6724 -19.6387 -19.6349 -19.6279 -19.5064 -18.6988
   -18.6896 -16.9427 -16.9281 -16.9159 -16.9145 -16.8054 -16.7943 -14.1653
   -14.1635 -14.1603 -14.1592 -13.2713 -13.2471 -13.1657 -13.1557 -11.5612
   -11.5578 -11.5545 -11.5524 -11.3540 -11.3349 -11.3341 -11.3325 -11.3293
    -9.7250  -9.6201  -9.6046  -9.3085  -8.7035  -8.6702  -8.6012  -8.5934
    -8.2962  -8.2940  -8.2870  -8.2844  -7.6223  -7.3407  -7.3372  -7.3240
    -6.9867  -6.9620  -6.9373  -6.7662  -6.7370  -6.3481  -6.3248  -6.3143
    -6.2341  -4.7358  -4.6682  -4.4066  -4.3923  -4.2467  -4.1821  -0.5113
    -0.4615  -0.4559  -0.4458   0.3432   0.4748   0.5125   0.8826   1.1922
     1.2574   1.4208   1.4621   2.0679

          k = 0.0833 0.0000 0.0000 ( 31951 PWs)   bands (ev):

   -21.8033 -20.8313 -20.3524 -20.3482 -19.5583 -19.3971 -19.3821 -18.9277
   -17.5726 -17.5719 -16.8299 -16.8217 -16.6348 -16.2858 -15.8012 -15.5454
   -14.8953 -14.6378 -14.6368 -14.1448 -13.2515 -13.2501 -12.4189 -12.1783
   -11.7257 -11.5039 -11.5035 -11.3277 -10.1921  -9.9559  -9.9535  -9.8809
    -9.7286  -9.4654  -9.3101  -9.1705  -9.1696  -8.9946  -8.9935  -8.8805
    -8.7635  -8.7454  -8.6060  -8.2273  -8.1050  -8.0595  -8.0579  -7.6736
    -7.2911  -7.0847  -6.8836  -6.7629  -6.7358  -6.4638  -6.1079  -5.8829
    -5.2807  -5.2541  -4.6870  -4.5140  -4.4371  -3.6571  -3.3983  -1.4244
    -1.0972  -0.7114  -0.0539  -0.0364   0.1661   0.4917   0.5415   0.8669
     1.5260   1.7432   2.1497   2.1946

          k = 0.0833 0.0722 0.0000 ( 31951 PWs)   bands (ev):

   -21.7116 -20.9822 -20.7407 -20.0224 -19.5796 -19.5081 -18.8403 -18.6093
   -18.1516 -17.4899 -16.8993 -16.8252 -16.8145 -16.6168 -16.2500 -15.1543
   -14.6648 -14.5663 -14.0502 -13.9294 -13.2506 -13.2490 -12.2356 -12.2220
   -12.0035 -11.7894 -11.5265 -11.3215 -10.7405 -10.3554  -9.7808  -9.7450
    -9.7253  -9.6959  -9.3738  -9.3088  -9.1682  -8.9941  -8.8295  -8.7819
    -8.6730  -8.6535  -8.5224  -8.4861  -8.1703  -7.8216  -7.5331  -7.3530
    -7.3382  -6.9931  -6.7758  -6.7611  -6.4441  -6.4044  -6.1555  -6.0586
    -5.7650  -5.1677  -4.7565  -4.5080  -4.4659  -3.9999  -3.7749  -1.0664
    -0.7498  -0.5672  -0.0680   0.2843   0.4424   0.5173   0.6978   0.9953
     1.4592   1.6230   1.6722   1.9155

          k = 0.0833-0.1443 0.0000 ( 31876 PWs)   bands (ev):

   -21.4402 -21.4344 -20.4722 -20.4679 -19.5454 -18.5851 -18.5834 -18.5773
   -18.5722 -17.6773 -17.6697 -16.8307 -16.8170 -16.3233 -16.3177 -15.2668
   -15.2634 -13.2569 -13.2537 -13.0985 -13.0949 -13.0920 -13.0870 -13.0190
   -13.0170 -11.4050 -11.4003 -11.3137 -10.7147 -10.7124  -9.9357  -9.9314
    -9.7307  -9.4905  -9.4616  -9.3100  -9.1018  -9.0971  -9.0955  -9.0904
    -8.7816  -8.7095  -8.3116  -8.2671  -7.6041  -7.5928  -7.2842  -7.2673
    -7.1312  -6.7842  -6.7748  -6.6207  -6.6175  -6.2177  -6.1668  -6.1496
    -6.1108  -5.2088  -5.1370  -4.5505  -4.4378  -4.1384  -4.0822  -0.9252
    -0.9061   0.3455   0.3917   0.4736   0.5206   0.5915   1.0621   1.3422
     1.3563   1.3627   1.3687   1.3962

          k =-0.1667 0.0000 0.0000 ( 31854 PWs)   bands (ev):

   -21.4378 -21.4368 -20.0003 -19.9927 -19.9900 -19.9895 -19.5315 -17.6757
   -17.6716 -16.8463 -16.8248 -16.7369 -16.7325 -16.3254 -16.3201 -15.6517
   -15.6504 -15.2628 -15.2572 -13.2563 -13.2339 -13.0229 -13.0213 -11.3988
   -11.3975 -11.2897 -10.7244 -10.7097 -10.2814 -10.2795 -10.2772 -10.2756
    -9.7394  -9.4832  -9.4744  -9.3104  -8.9537  -8.9522  -8.9260  -8.9225
    -8.9166  -8.9138  -8.7607  -8.7266  -7.9318  -7.7297  -7.7178  -7.7156
    -7.2921  -7.2743  -6.9486  -6.7619  -6.7345  -6.6131  -6.6086  -5.2521
    -5.1096  -4.8004  -4.7806  -4.5609  -4.4255  -4.1376  -4.0950  -0.9316
    -0.8875  -0.6759  -0.6725   0.3451   0.4236   0.5325   0.5690   0.6059
     0.8820   1.3646   1.4079   2.1963

          k =-0.1667 0.0722 0.0000 ( 31908 PWs)   bands (ev):

   -21.3465 -21.3456 -20.6206 -20.6201 -19.5477 -19.1932 -19.1841 -17.5937
   -17.5896 -17.1635 -17.1622 -17.0032 -16.9942 -16.8252 -16.8105 -15.2506
   -15.2503 -14.3165 -14.3125 -13.5759 -13.5737 -13.2523 -13.2317 -11.5240
   -11.5224 -11.2838 -10.8303 -10.8300 -10.6212 -10.6065  -9.7611  -9.7449
    -9.7306  -9.3880  -9.3709  -9.3117  -9.2653  -9.2589  -9.2229  -9.2212
    -8.7928  -8.7832  -8.4517  -8.4248  -7.9146  -7.9091  -7.6522  -7.6386
    -7.2015  -6.8694  -6.7861  -6.7085  -6.6589  -6.6480  -6.6473  -5.2129
    -5.0684  -4.8832  -4.8693  -4.7820  -4.7201  -4.3788  -4.3641  -0.5263
    -0.5197  -0.2829  -0.2497   0.2102   0.2571   0.5463   0.5633   0.6650
     0.9943   1.4925   1.5205   1.6981

          k =-0.1667-0.1443 0.0000 ( 31784 PWs)   bands (ev):

   -21.0770 -21.0744 -21.0710 -21.0695 -19.5435 -18.2418 -18.2406 -18.2350
   -18.2296 -17.3574 -17.3573 -17.3531 -17.3434 -16.8296 -16.8155 -14.4659
   -14.4647 -14.4565 -14.4543 -13.2550 -13.2334 -12.9264 -12.9241 -12.9225
   -12.9188 -11.2777 -10.3085 -10.3037 -10.2954 -10.2876  -9.9410  -9.9395
    -9.9219  -9.9198  -9.7404  -9.3119  -9.1295  -9.1230  -9.0839  -8.9943
    -8.6703  -8.6287  -8.3927  -8.3883  -8.3816  -8.3791  -7.1104  -7.0697
    -7.0658  -7.0580  -7.0565  -6.7761  -6.7441  -5.8758  -5.7760  -5.7518
    -5.7033  -5.1374  -4.9631  -4.9510  -4.9308  -4.4307  -4.3776  -0.2039
    -0.1598  -0.1184  -0.1135   0.4699   0.5530   0.7767   1.0643   1.0745
     1.0902   1.1045   1.1632   1.3961

          k =-0.0833 0.0722 0.0000 ( 31951 PWs)   bands (ev):

   -21.7116 -20.9822 -20.7407 -20.0224 -19.5797 -19.5080 -18.8403 -18.6093
   -18.1516 -17.4900 -16.8999 -16.8257 -16.8130 -16.6169 -16.2498 -15.1544
   -14.6649 -14.5665 -14.0500 -13.9294 -13.2500 -13.2489 -12.2359 -12.2222
   -12.0033 -11.7895 -11.5268 -11.3212 -10.7405 -10.3554  -9.7808  -9.7411
    -9.7296  -9.6968  -9.3731  -9.3091  -9.1681  -8.9934  -8.8302  -8.7827
    -8.6733  -8.6525  -8.5188  -8.4866  -8.1704  -7.8164  -7.5333  -7.3533
    -7.3442  -7.0043  -6.7925  -6.7481  -6.4439  -6.3881  -6.1539  -6.0585
    -5.7648  -5.1712  -4.7588  -4.5054  -4.4654  -4.0006  -3.7739  -1.0690
    -0.7475  -0.5711  -0.0780   0.2780   0.4505   0.5236   0.7090   0.9950
     1.4459   1.5900   1.6710   1.9180

     the Fermi energy is    -2.3790 ev

!    total energy              =    -351.26128654 Ry
     Harris-Foulkes estimate   =    -351.26128700 Ry
     estimated scf accuracy    <       0.00000086 Ry

     The total energy is the sum of the following terms:

     one-electron contribution =   -4804.54316124 Ry
     hartree contribution      =    2422.20808751 Ry
     xc contribution           =    -112.32645700 Ry
     ewald contribution        =    2143.40306456 Ry
     smearing contrib. (-TS)   =      -0.00282037 Ry

     convergence has been achieved in   5 iterations

     Forces acting on atoms (cartesian axes, Ry/au):

     atom    1 type  1   force =    -0.00078152   -0.00095510    0.00000605
     atom    2 type  1   force =     0.00012530    0.00082744    0.00051010
     atom    3 type  1   force =     0.00003051   -0.00074626   -0.00244894
     atom    4 type  1   force =     0.00008435    0.00046790   -0.00325803
     atom    5 type  1   force =    -0.00066774    0.00003262   -0.00292718
     atom    6 type  1   force =     0.00004822    0.00055001    0.00047596
     atom    7 type  1   force =     0.00001174   -0.00092490    0.00199691
     atom    8 type  1   force =     0.00070936    0.00029885    0.00127895
     atom    9 type  1   force =    -0.00011441   -0.00072957   -0.00286125
     atom   10 type  1   force =    -0.00027571   -0.00007543   -0.00334068
     atom   11 type  1   force =    -0.00123313   -0.00074968   -0.00625663
     atom   12 type  1   force =    -0.00005269    0.00082290   -0.00817580
     atom   13 type  1   force =     0.00008892   -0.00028799   -0.00630586
     atom   14 type  1   force =    -0.00062214    0.00068856   -0.00310104
     atom   15 type  1   force =    -0.00035197    0.00107842   -0.00056836
     atom   16 type  1   force =    -0.00012402   -0.00071106    0.00023820
     atom   17 type  1   force =     0.00056222   -0.00069544   -0.00004786
     atom   18 type  1   force =     0.00045478   -0.00002966   -0.00358593
     atom   19 type  1   force =     0.00113960   -0.00082932   -0.00627416
     atom   20 type  1   force =    -0.00026843    0.00084422   -0.00323442
     atom   21 type  1   force =     0.00088551   -0.00034100   -0.00295582
     atom   22 type  1   force =     0.00033559    0.00084755   -0.00327653
     atom   23 type  1   force =     0.00037942    0.00084806   -0.00062783
     atom   24 type  1   force =    -0.00035213    0.00013938    0.00091841
     atom   25 type  1   force =    -0.00278611    0.00578683    0.00779509
     atom   26 type  1   force =     0.00004428    0.00801952    0.00723903
     atom   27 type  1   force =     0.00581513   -0.00156631    0.00781423
     atom   28 type  1   force =     0.00838527   -0.00299613    0.00724483
     atom   29 type  1   force =    -0.00535794   -0.00460312    0.00777641
     atom   30 type  1   force =    -0.00612568   -0.00479038    0.00727596
     atom   31 type  2   force =     0.00256633   -0.00260052    0.00126502
     atom   32 type  2   force =    -0.00098373   -0.00407895    0.00157521
     atom   33 type  2   force =    -0.00338786   -0.00116061    0.00133667
     atom   34 type  2   force =    -0.00322394    0.00303628    0.00157034
     atom   35 type  2   force =     0.00089444    0.00316402    0.00126630
     atom   36 type  2   force =     0.00414816    0.00141886    0.00166268

     Total force =     0.032945     Total SCF correction =     0.002552

     number of scf cycles    =   4
     number of bfgs steps    =   3

     energy   old            =    -351.2595396945 Ry
     energy   new            =    -351.2612865409 Ry

     CASE: energy  _new < energy  _old

     new trust radius        =       0.0306941632 bohr
     new conv_thr            =       0.0000008385 Ry


ATOMIC_POSITIONS (angstrom)
C        1.230901144   0.001718564   0.001136406
C       -0.000182478   0.710772844   0.005910176
C       -0.000501313   2.132895670  -0.003211346
C        1.230721976   2.840163343  -0.017764149
C        1.231149826   4.259902460  -0.009443103
C       -0.000036606   4.969172530   0.003105704
C        0.000110062   6.390354275   0.005394316
C        1.230425356   7.101099919   0.003760372
C        3.690135091   0.001872986  -0.009996559
C        2.460919907   0.711402452  -0.018732131
C        2.461240698   2.131440385  -0.032118254
C        3.689959628   2.840424555  -0.038249395
C        3.690103389   4.259729749  -0.032400762
C        2.461591924   4.969651300  -0.018350858
C        2.461030286   6.390068002   0.000831605
C        3.690298986   7.102017212   0.004432591
C        6.149137676   0.001423977  -0.000285402
C        4.918884450   0.711150025  -0.018995879
C        4.918571903   2.131282265  -0.032140233
C        6.148945270   2.839975669  -0.017924947
C        6.148677022   4.260068377  -0.009465400
C        4.918801377   4.969703402  -0.018523219
C        4.919467197   6.390222956  -0.000651322
C        6.149724324   7.101112980   0.002900359
C        4.675055762   1.854029486   3.038077027
C        3.330813655   1.492714476   3.039848171
C        2.342814405   2.481157052   3.038163999
C        2.701523108   3.825506273   3.039866790
C        4.052133191   4.186097526   3.038011840
C        5.037609087   3.203466521   3.039991379
H        5.441421136   1.088740096   3.002009728
H        3.049018540   0.447760632   3.003334164
H        1.297716661   2.198178746   3.002350843
H        1.938140799   4.592522572   3.003348241
H        4.331008628   5.232731605   3.002022075
H        6.082667934   3.483128747   3.003757174



     Writing output data file batch_graph+benzene.save/
     NEW-OLD atomic charge density approx. for the potential

     negative rho (up, down):  2.127E-04 0.000E+00

     total cpu time spent up to now is      860.6 secs

     Self-consistent Calculation

     iteration #  1     ecut=    32.00 Ry     beta= 0.50
     Davidson diagonalization with overlap
     ethr =  1.00E-06,  avg # of iterations =  4.0

     negative rho (up, down):  2.124E-04 0.000E+00

     total cpu time spent up to now is      917.5 secs

     total energy              =    -351.26316397 Ry
     Harris-Foulkes estimate   =    -351.26398483 Ry
     estimated scf accuracy    <       0.00183296 Ry

     iteration #  2     ecut=    32.00 Ry     beta= 0.50
     Davidson diagonalization with overlap
     ethr =  1.45E-06,  avg # of iterations =  2.5

     negative rho (up, down):  2.143E-04 0.000E+00

     total cpu time spent up to now is      948.3 secs

     total energy              =    -351.26348348 Ry
     Harris-Foulkes estimate   =    -351.26353707 Ry
     estimated scf accuracy    <       0.00022075 Ry

     iteration #  3     ecut=    32.00 Ry     beta= 0.50
     Davidson diagonalization with overlap
     ethr =  1.75E-07,  avg # of iterations =  2.0

     negative rho (up, down):  2.157E-04 0.000E+00

     total cpu time spent up to now is      977.6 secs

     total energy              =    -351.26351891 Ry
     Harris-Foulkes estimate   =    -351.26352101 Ry
     estimated scf accuracy    <       0.00004257 Ry

     iteration #  4     ecut=    32.00 Ry     beta= 0.50
     Davidson diagonalization with overlap
     ethr =  3.38E-08,  avg # of iterations =  2.0

     negative rho (up, down):  2.190E-04 0.000E+00

     total cpu time spent up to now is     1006.6 secs

     total energy              =    -351.26352486 Ry
     Harris-Foulkes estimate   =    -351.26352473 Ry
     estimated scf accuracy    <       0.00000590 Ry

     iteration #  5     ecut=    32.00 Ry     beta= 0.50
     Davidson diagonalization with overlap
     ethr =  4.68E-09,  avg # of iterations =  2.0

     negative rho (up, down):  2.142E-04 0.000E+00

     total cpu time spent up to now is     1035.7 secs

     total energy              =    -351.26352588 Ry
     Harris-Foulkes estimate   =    -351.26352609 Ry
     estimated scf accuracy    <       0.00000117 Ry

     iteration #  6     ecut=    32.00 Ry     beta= 0.50
     Davidson diagonalization with overlap
     ethr =  9.28E-10,  avg # of iterations =  2.0

     negative rho (up, down):  2.124E-04 0.000E+00

     total cpu time spent up to now is     1063.3 secs

     End of self-consistent calculation

          k = 0.0000 0.0000 0.0000 ( 31971 PWs)   bands (ev):

   -21.9329 -20.4788 -20.4755 -20.0048 -19.9959 -19.5550 -18.5919 -18.5884
   -18.5842 -18.5839 -16.8315 -16.8253 -16.7446 -15.6535 -15.0845 -15.0797
   -15.0781 -15.0760 -13.2764 -13.2533 -13.1066 -13.1053 -13.1012 -13.0979
   -12.9625 -12.9613 -11.3692 -10.2948 -10.2906 -10.0213  -9.9360  -9.9356
    -9.7131  -9.3161  -9.1057  -9.1041  -9.1013  -9.1001  -8.9654  -8.9206
    -8.9199  -8.7716  -8.6762  -8.3857  -8.2273  -7.8315  -7.7156  -7.6126
    -7.6120  -7.0793  -6.7941  -6.7818  -6.2186  -6.2091  -6.1374  -6.0986
    -5.6438  -5.6297  -4.8055  -4.4998  -4.4866  -2.3933  -2.3868  -2.3835
    -2.3832  -0.6752  -0.0341   0.4175   0.5201   0.6872   1.3355   1.3382
     1.3552   1.3747   1.5836   1.9937

          k = 0.0000 0.0722 0.0000 ( 31929 PWs)   bands (ev):

   -21.8411 -21.1105 -19.9166 -19.9064 -19.6790 -19.5494 -19.1965 -19.1942
   -17.8233 -17.8203 -17.6075 -16.8254 -16.8235 -15.9524 -15.9504 -14.6647
   -14.5511 -14.5509 -13.7055 -13.7041 -13.2676 -13.2469 -12.4429 -12.4412
   -12.3804 -12.3783 -11.5703 -11.3613 -10.7532 -10.7497 -10.1454 -10.1439
    -9.9197  -9.7141  -9.3153  -9.1180  -8.8747  -8.6766  -8.6726  -8.6100
    -8.6077  -8.4380  -8.4377  -8.3606  -8.1767  -7.7778  -7.6220  -7.4328
    -7.1139  -6.9675  -6.9095  -6.7941  -6.7013  -6.6933  -5.9948  -5.8351
    -5.4065  -5.3764  -5.2822  -4.4975  -4.4914  -3.3970  -3.3874  -1.4133
    -1.4000  -0.0388   0.1055   0.3277   0.4245   0.5422   0.5866   0.8165
     1.3207   1.7889   1.8565   2.2040

          k = 0.0000-0.1443 0.0000 ( 31940 PWs)   bands (ev):

   -21.5679 -21.5649 -19.6785 -19.6444 -19.6407 -19.6368 -19.5227 -18.7064
   -18.6973 -16.9464 -16.9344 -16.9239 -16.9222 -16.8122 -16.8032 -14.1715
   -14.1705 -14.1698 -14.1682 -13.2727 -13.2470 -13.1748 -13.1626 -11.5699
   -11.5669 -11.5615 -11.5603 -11.3585 -11.3436 -11.3430 -11.3396 -11.3369
    -9.7161  -9.6212  -9.6099  -9.3148  -8.7032  -8.6713  -8.6079  -8.6045
    -8.3035  -8.3021  -8.2943  -8.2933  -7.6201  -7.3431  -7.3424  -7.3291
    -6.9937  -6.9754  -6.9534  -6.7710  -6.7325  -6.3497  -6.3340  -6.3236
    -6.2468  -4.7329  -4.6668  -4.4131  -4.4017  -4.2636  -4.2035  -0.5163
    -0.4681  -0.4622  -0.4557   0.3457   0.4745   0.5185   0.8837   1.1866
     1.2572   1.4123   1.4529   2.0662

          k = 0.0833 0.0000 0.0000 ( 31951 PWs)   bands (ev):

   -21.8106 -20.8386 -20.3593 -20.3557 -19.5693 -19.4047 -19.3918 -18.9354
   -17.5804 -17.5791 -16.8343 -16.8272 -16.6434 -16.2938 -15.8095 -15.5526
   -14.9025 -14.6458 -14.6447 -14.1531 -13.2536 -13.2501 -12.4264 -12.1865
   -11.7342 -11.5121 -11.5113 -11.3332 -10.1994  -9.9642  -9.9614  -9.8831
    -9.7198  -9.4739  -9.3162  -9.1785  -9.1778  -9.0021  -9.0019  -8.8826
    -8.7716  -8.7473  -8.6062  -8.2283  -8.1094  -8.0679  -8.0671  -7.6812
    -7.2987  -7.0892  -6.8993  -6.7665  -6.7314  -6.4736  -6.1173  -5.8902
    -5.2834  -5.2584  -4.6900  -4.5244  -4.4519  -3.6666  -3.4073  -1.4314
    -1.1046  -0.7191  -0.0601  -0.0434   0.1687   0.4927   0.5428   0.8616
     1.5290   1.7446   2.1442   2.1952

          k = 0.0833 0.0722 0.0000 ( 31951 PWs)   bands (ev):

   -21.7189 -20.9895 -20.7480 -20.0295 -19.5876 -19.5209 -18.8480 -18.6169
   -18.1592 -17.4975 -16.9048 -16.8307 -16.8209 -16.6253 -16.2578 -15.1623
   -14.6729 -14.5738 -14.0577 -13.9373 -13.2523 -13.2494 -12.2439 -12.2299
   -12.0117 -11.7971 -11.5341 -11.3269 -10.7488 -10.3635  -9.7846  -9.7482
    -9.7215  -9.7025  -9.3822  -9.3152  -9.1769  -8.9970  -8.8306  -8.7896
    -8.6729  -8.6622  -8.5252  -8.4937  -8.1783  -7.8240  -7.5408  -7.3619
    -7.3429  -7.0162  -6.7759  -6.7550  -6.4535  -6.4104  -6.1618  -6.0665
[...]

     CASE: energy  _new < energy  _old

     new trust radius        =       0.0003536269 bohr
     new conv_thr            =       0.0000000100 Ry


ATOMIC_POSITIONS (angstrom)
C        1.231338365   0.000351839  -0.173437217
C        0.001047079   0.710140096  -0.175566827
C        0.001023326   2.130799830  -0.187340759
C        1.231280264   2.840207113  -0.193362711
C        1.231093871   4.260454850  -0.186419303
C        0.000789711   4.970223180  -0.176083801
C        0.000855591   6.391071812  -0.167800826
C        1.230985059   7.101133812  -0.168189402
C        3.691377450   0.000699249  -0.179663838
C        2.461533021   0.710550128  -0.186328667
C        2.461451633   2.130590697  -0.199281673
C        3.690848374   2.840262067  -0.204606141
C        3.690740201   4.260228119  -0.198662433
C        2.461362333   4.970160469  -0.187622893
C        2.461257613   6.390720087  -0.174029357
C        3.690954138   7.101418385  -0.172736666
C        6.150764381   0.000351582  -0.173866776
C        4.920676489   0.710635901  -0.186600331
C        4.920402020   2.130663726  -0.199397956
C        6.150568010   2.840184556  -0.193436562
C        6.150474542   4.260427125  -0.186530456
C        4.920144981   4.970097287  -0.187862438
C        4.920494546   6.390658422  -0.174494790
C        6.150778897   7.101138824  -0.168639322
C        4.679438014   1.858724217   3.371451376
C        3.333232143   1.492028816   3.371135846
C        2.341787154   2.474014263   3.370695094
C        2.696566128   3.822919141   3.370860081
C        4.043300472   4.189525163   3.371314162
C        5.034518034   3.208014097   3.372059158
H        5.450809563   1.093052441   3.362482824
H        3.056548311   0.441060948   3.362234947
H        1.293722201   2.186363022   3.361420908
H        1.925405643   4.588718112   3.361696634
H        4.319837610   5.240597869   3.362319163
H        6.082592831   3.495472379   3.364290953



     Writing output data file batch_graph+benzene.save/
     NEW-OLD atomic charge density approx. for the potential

     negative rho (up, down):  2.033E-04 0.000E+00

     total cpu time spent up to now is     9233.0 secs

     Self-consistent Calculation

     iteration #  1     ecut=    32.00 Ry     beta= 0.50
     Davidson diagonalization with overlap
     ethr =  1.00E-06,  avg # of iterations =  2.0

     Threshold (ethr) on eigenvalues was too large:
     Diagonalizing with lowered threshold

     Davidson diagonalization with overlap
     ethr =  1.02E-10,  avg # of iterations =  3.0

     negative rho (up, down):  2.033E-04 0.000E+00

     total cpu time spent up to now is     9295.0 secs

     total energy              =    -351.28295153 Ry
     Harris-Foulkes estimate   =    -351.28295163 Ry
     estimated scf accuracy    <       0.00000024 Ry

     iteration #  2     ecut=    32.00 Ry     beta= 0.50
     Davidson diagonalization with overlap
     ethr =  1.88E-10,  avg # of iterations =  2.0

     negative rho (up, down):  2.033E-04 0.000E+00

     total cpu time spent up to now is     9326.4 secs

     total energy              =    -351.28295155 Ry
     Harris-Foulkes estimate   =    -351.28295159 Ry
     estimated scf accuracy    <       0.00000006 Ry

     iteration #  3     ecut=    32.00 Ry     beta= 0.50
     Davidson diagonalization with overlap
     ethr =  5.06E-11,  avg # of iterations =  2.7

     negative rho (up, down):  2.033E-04 0.000E+00

     total cpu time spent up to now is     9356.8 secs

     total energy              =    -351.28295157 Ry
     Harris-Foulkes estimate   =    -351.28295157 Ry
     estimated scf accuracy    <       0.00000002 Ry

     iteration #  4     ecut=    32.00 Ry     beta= 0.50
     Davidson diagonalization with overlap
     ethr =  1.64E-11,  avg # of iterations =  2.7

     negative rho (up, down):  2.033E-04 0.000E+00

     total cpu time spent up to now is     9384.9 secs

     End of self-consistent calculation

          k = 0.0000 0.0000 0.0000 ( 31971 PWs)   bands (ev):

   -21.8592 -20.4035 -20.4031 -19.9270 -19.9239 -19.5688 -18.5188 -18.5162
   -18.5148 -18.5130 -16.8287 -16.8274 -16.6790 -15.5867 -15.0122 -15.0092
   -15.0090 -15.0083 -13.2650 -13.2430 -13.0356 -13.0353 -13.0340 -13.0337
   -12.8952 -12.8947 -11.3361 -10.2228 -10.2201  -9.9397  -9.8699  -9.8682
    -9.6914  -9.3324  -9.0397  -9.0390  -9.0328  -9.0319  -8.8956  -8.8555
    -8.8550  -8.7217  -8.6557  -8.2321  -8.1952  -7.6922  -7.6422  -7.5428
    -7.5425  -7.2718  -6.8102  -6.7757  -6.1006  -6.1000  -6.0788  -6.0719
    -5.5729  -5.5674  -4.7078  -4.6127  -4.5953  -2.3122  -2.3090  -2.3077
    -2.3069  -0.6028  -0.1374   0.3615   0.4692   0.6715   1.4159   1.4193
     1.4310   1.4377   1.4699   1.8764

          k = 0.0000 0.0722 0.0000 ( 31929 PWs)   bands (ev):

   -21.7675 -21.0368 -19.8377 -19.8344 -19.6010 -19.5654 -19.1266 -19.1246
   -17.7510 -17.7487 -17.5354 -16.8288 -16.8275 -15.8829 -15.8809 -14.5964
   -14.4811 -14.4806 -13.6345 -13.6332 -13.2628 -13.2429 -12.3742 -12.3731
   -12.3103 -12.3087 -11.5029 -11.3310 -10.6821 -10.6799 -10.0775 -10.0763
    -9.8296  -9.6929  -9.3323  -8.9767  -8.8048  -8.7086  -8.6546  -8.5445
    -8.5437  -8.3721  -8.3717  -8.2955  -8.1067  -7.6104  -7.5430  -7.3558
    -7.2063  -6.8969  -6.8087  -6.8043  -6.7320  -6.7206  -5.9321  -5.7637
    -5.2818  -5.2757  -5.2034  -4.6129  -4.6105  -3.3248  -3.3238  -1.3266
    -1.3236   0.0010   0.0531   0.3652   0.4508   0.5347   0.5477   0.8007
     1.2191   1.6789   1.8320   2.2116

          k = 0.0000-0.1443 0.0000 ( 31940 PWs)   bands (ev):

   -21.4990 -21.4864 -19.5877 -19.5756 -19.5730 -19.5606 -19.5445 -18.6336
   -18.6277 -16.8622 -16.8554 -16.8519 -16.8517 -16.8232 -16.8217 -14.1044
   -14.1029 -14.0958 -14.0951 -13.2615 -13.2431 -13.1045 -13.1038 -11.4987
   -11.4964 -11.4919 -11.4904 -11.3260 -11.2766 -11.2747 -11.2727 -11.2718
    -9.6946  -9.5114  -9.4998  -9.3322  -8.7306  -8.6536  -8.5419  -8.5322
    -8.2354  -8.2347  -8.2303  -8.2292  -7.4579  -7.2546  -7.2538  -7.2409
    -7.1122  -6.9242  -6.9092  -6.7996  -6.7638  -6.2636  -6.2524  -6.2391
    -6.2113  -4.6709  -4.6437  -4.3328  -4.3282  -4.3037  -4.2911  -0.3987
    -0.3898  -0.3858  -0.3820   0.2387   0.3994   0.4591   0.8006   1.1737
     1.2268   1.4892   1.5097   1.9838

          k = 0.0833 0.0000 0.0000 ( 31951 PWs)   bands (ev):

   -21.7369 -20.7648 -20.2837 -20.2833 -19.5687 -19.3326 -19.3314 -18.8645
   -17.5077 -17.5074 -16.8361 -16.8274 -16.5744 -16.2249 -15.7384 -15.4857
   -14.8353 -14.5747 -14.5743 -14.0817 -13.2488 -13.2463 -12.3594 -12.1162
   -11.6630 -11.4424 -11.4418 -11.3047 -10.1332  -9.8968  -9.8953  -9.7920
    -9.6970  -9.4038  -9.3332  -9.1110  -9.1105  -8.9355  -8.9351  -8.7636
    -8.7128  -8.6978  -8.6084  -8.0915  -8.0581  -7.9975  -7.9972  -7.6170
    -7.3296  -6.9797  -6.9379  -6.7821  -6.7652  -6.4259  -6.0459  -5.8276
    -5.1734  -5.1662  -4.6444  -4.6258  -4.5067  -3.6087  -3.3348  -1.3536
    -1.0197  -0.6457   0.0252   0.0428   0.0703   0.4167   0.4568   0.8449
     1.4172   1.6330   2.0804   2.1842

          k = 0.0833 0.0722 0.0000 ( 31951 PWs)   bands (ev):

   -21.6453 -20.9158 -20.6742 -19.9546 -19.5689 -19.4784 -18.7769 -18.5455
   -18.0874 -17.4251 -16.8391 -16.8305 -16.8176 -16.5591 -16.1888 -15.0918
   -14.6017 -14.5055 -13.9893 -13.8663 -13.2482 -13.2454 -12.1738 -12.1611
   -11.9412 -11.7295 -11.4670 -11.2998 -10.6794 -10.2948  -9.6990  -9.6863
    -9.6763  -9.6403  -9.3336  -9.3111  -9.1063  -8.8486  -8.7445  -8.7240
    -8.6933  -8.5921  -8.5156  -8.4295  -8.1116  -7.7079  -7.4758  -7.3268
    -7.2917  -7.1094  -6.7778  -6.7721  -6.3849  -6.3415  -6.0791  -6.0002
    -5.6843  -5.0666  -4.6779  -4.6191  -4.5494  -3.9729  -3.7263  -0.9916
    -0.6718  -0.4967   0.0083   0.1859   0.4234   0.4388   0.7286   0.9723
     1.3683   1.5238   1.7341   1.8860

          k = 0.0833-0.1443 0.0000 ( 31876 PWs)   bands (ev):

   -21.3772 -21.3646 -20.4095 -20.3971 -19.5678 -18.5223 -18.5185 -18.5131
   -18.5091 -17.6117 -17.6061 -16.8360 -16.8284 -16.2620 -16.2566 -15.2027
   -15.2019 -13.2486 -13.2441 -13.0383 -13.0339 -13.0335 -13.0313 -12.9603
   -12.9563 -11.3440 -11.3370 -11.2948 -10.6550 -10.6523  -9.8744  -9.8691
    -9.7000  -9.3663  -9.3580  -9.3333  -9.0421  -9.0374  -9.0335  -9.0319
    -8.7378  -8.7262  -8.2152  -8.2110  -7.5433  -7.5376  -7.3050  -7.2221
    -7.2133  -6.7791  -6.7686  -6.5619  -6.5562  -6.1018  -6.0938  -6.0826
    -6.0746  -5.0788  -5.0537  -4.6299  -4.6009  -4.0785  -4.0653  -0.8494
    -0.8379   0.3766   0.4108   0.4301   0.5155   0.5372   0.9908   1.3469
     1.3896   1.4215   1.4252   1.4341

          k =-0.1667 0.0000 0.0000 ( 31854 PWs)   bands (ev):

   -21.3751 -21.3667 -19.9293 -19.9291 -19.9221 -19.9208 -19.5654 -17.6091
   -17.6087 -16.8443 -16.8271 -16.6780 -16.6778 -16.2642 -16.2566 -15.5890
   -15.5884 -15.2045 -15.1957 -13.2512 -13.2319 -12.9603 -12.9601 -11.3386
   -11.3384 -11.2708 -10.6600 -10.6501 -10.2210 -10.2194 -10.2190 -10.2166
    -9.7063  -9.3675  -9.3577  -9.3339  -8.8945  -8.8942  -8.8609  -8.8599
    -8.8569  -8.8553  -8.7980  -8.7038  -7.7259  -7.6527  -7.6497  -7.6386
    -7.2319  -7.2257  -7.2160  -6.7771  -6.7512  -6.5587  -6.5518  -5.0870
    -5.0466  -4.7163  -4.6960  -4.6142  -4.5825  -4.0833  -4.0656  -0.8509
    -0.8300  -0.6064  -0.6055   0.4049   0.4571   0.4777   0.5139   0.5321
     0.7680   1.3462   1.3744   2.1169

          k =-0.1667 0.0722 0.0000 ( 31908 PWs)   bands (ev):

   -21.2839 -21.2755 -20.5579 -20.5496 -19.5668 -19.1314 -19.1226 -17.5270
   -17.5266 -17.1003 -17.0928 -16.9317 -16.9301 -16.8422 -16.8265 -15.1880
   -15.1876 -14.2577 -14.2496 -13.5114 -13.5111 -13.2513 -13.2300 -11.4665
   -11.4605 -11.2663 -10.7707 -10.7704 -10.5567 -10.5469  -9.7082  -9.6895
    -9.6815  -9.3344  -9.2609  -9.2519  -9.2041  -9.2015  -9.1639  -9.1636
    -8.8002  -8.7233  -8.3847  -8.3811  -7.8525  -7.8519  -7.5880  -7.5809
    -7.3123  -6.7978  -6.7662  -6.7170  -6.6939  -6.5932  -6.5893  -5.0412
    -5.0000  -4.7768  -4.7578  -4.7087  -4.6543  -4.5670  -4.5253  -0.4498
    -0.4478  -0.1973  -0.1779   0.3120   0.3333   0.4356   0.4943   0.5552
     0.8844   1.4674   1.4909   1.6064

          k =-0.1667-0.1443 0.0000 ( 31784 PWs)   bands (ev):

   -21.0159 -21.0098 -21.0056 -20.9950 -19.5664 -18.1793 -18.1743 -18.1719
   -18.1652 -17.2951 -17.2926 -17.2829 -17.2793 -16.8431 -16.8278 -14.4029
   -14.4006 -14.3944 -14.3922 -13.2518 -13.2283 -12.8678 -12.8674 -12.8601
   -12.8600 -11.2614 -10.2456 -10.2375 -10.2370 -10.2262  -9.8790  -9.8770
    -9.8648  -9.8628  -9.7090  -9.3346  -8.9681  -8.9501  -8.9353  -8.9281
    -8.7546  -8.6949  -8.3281  -8.3276  -8.3250  -8.3211  -7.3022  -7.0067
    -7.0058  -7.0037  -7.0005  -6.7813  -6.7409  -5.7086  -5.6927  -5.6860
    -5.6639  -4.9460  -4.8922  -4.8825  -4.8637  -4.6024  -4.5795  -0.0856
    -0.0793  -0.0510  -0.0471   0.3942   0.5139   0.6627   1.0320   1.1341
     1.1464   1.1490   1.1642   1.3013

          k =-0.0833 0.0722 0.0000 ( 31951 PWs)   bands (ev):

   -21.6453 -20.9158 -20.6742 -19.9546 -19.5690 -19.4784 -18.7769 -18.5456
   -18.0874 -17.4251 -16.8396 -16.8300 -16.8176 -16.5591 -16.1887 -15.0915
   -14.6020 -14.5055 -13.9892 -13.8665 -13.2482 -13.2453 -12.1736 -12.1615
   -11.9413 -11.7293 -11.4669 -11.2999 -10.6791 -10.2944  -9.6987  -9.6866
    -9.6771  -9.6402  -9.3334  -9.3112  -9.1066  -8.8480  -8.7457  -8.7239
    -8.6931  -8.5922  -8.5147  -8.4298  -8.1120  -7.7068  -7.4755  -7.3271
    -7.2914  -7.1126  -6.7772  -6.7726  -6.3842  -6.3389  -6.0784  -6.0009
    -5.6844  -5.0673  -4.6795  -4.6179  -4.5490  -3.9732  -3.7259  -0.9925
    -0.6710  -0.4970   0.0062   0.1825   0.4238   0.4426   0.7296   0.9721
     1.3499   1.4970   1.7330   1.8918

     the Fermi energy is    -2.3089 ev

!    total energy              =    -351.28295157 Ry
     Harris-Foulkes estimate   =    -351.28295157 Ry
     estimated scf accuracy    <          2.4E-09 Ry

     The total energy is the sum of the following terms:

     one-electron contribution =   -4569.23437516 Ry
     hartree contribution      =    2304.70097539 Ry
     xc contribution           =    -112.23374638 Ry
     ewald contribution        =    2025.48701539 Ry
     smearing contrib. (-TS)   =      -0.00282081 Ry

     convergence has been achieved in   4 iterations

     Forces acting on atoms (cartesian axes, Ry/au):

     atom    1 type  1   force =    -0.00000785   -0.00002139   -0.00001693
     atom    2 type  1   force =     0.00004061    0.00000796    0.00000700
     atom    3 type  1   force =    -0.00003302    0.00001870    0.00003331
     atom    4 type  1   force =     0.00000500   -0.00004795    0.00000533
     atom    5 type  1   force =     0.00001691    0.00000982   -0.00005104
     atom    6 type  1   force =     0.00004698   -0.00007050   -0.00000193
     atom    7 type  1   force =    -0.00001703   -0.00005276    0.00001342
     atom    8 type  1   force =    -0.00000318    0.00002064    0.00000211
     atom    9 type  1   force =     0.00004901    0.00003371    0.00001960
     atom   10 type  1   force =     0.00005256   -0.00000907    0.00003598
     atom   11 type  1   force =    -0.00001394    0.00000676    0.00001452
     atom   12 type  1   force =     0.00003058   -0.00000797    0.00001136
     atom   13 type  1   force =     0.00002143    0.00004236   -0.00000562
     atom   14 type  1   force =     0.00007388    0.00001493   -0.00002104
     atom   15 type  1   force =    -0.00001024    0.00003806   -0.00000803
     atom   16 type  1   force =     0.00004760    0.00007652   -0.00001843
     atom   17 type  1   force =     0.00002781   -0.00002291   -0.00001570
     atom   18 type  1   force =     0.00007136    0.00001804    0.00004102
     atom   19 type  1   force =    -0.00000594    0.00002882    0.00001673
     atom   20 type  1   force =    -0.00001013   -0.00001912    0.00000506
     atom   21 type  1   force =     0.00001086    0.00001939   -0.00004884
     atom   22 type  1   force =     0.00006424    0.00002376   -0.00001545
     atom   23 type  1   force =     0.00000029    0.00003372   -0.00000534
     atom   24 type  1   force =     0.00000448    0.00001838    0.00000797
     atom   25 type  1   force =    -0.00008283    0.00000778    0.00000065
     atom   26 type  1   force =     0.00000385    0.00002768    0.00002033
     atom   27 type  1   force =    -0.00004010   -0.00003046   -0.00001362
     atom   28 type  1   force =     0.00002818   -0.00002809    0.00002336
     atom   29 type  1   force =    -0.00009945   -0.00004311   -0.00000426
     atom   30 type  1   force =    -0.00004031   -0.00001383    0.00000639
     atom   31 type  2   force =    -0.00003286    0.00000576   -0.00000683
     atom   32 type  2   force =    -0.00002639   -0.00000016   -0.00001541
     atom   33 type  2   force =    -0.00002459   -0.00002446    0.00001192
     atom   34 type  2   force =    -0.00003811   -0.00003742   -0.00001427
     atom   35 type  2   force =    -0.00004677   -0.00001673   -0.00001528
     atom   36 type  2   force =    -0.00006290   -0.00000685    0.00000197

     Total force =     0.000330     Total SCF correction =     0.000122
     SCF correction compared to forces is large: reduce conv_thr to get better values

     bfgs converged in  44 scf cycles and  42 bfgs steps
     (criteria: energy <  1.0E-05 Ry, force <  1.0E-04 Ry/Bohr)

     End of BFGS Geometry Optimization

     Final energy   =    -351.2829515674 Ry
Begin final coordinates

ATOMIC_POSITIONS (angstrom)
C        1.231338365   0.000351839  -0.173437217
C        0.001047079   0.710140096  -0.175566827
C        0.001023326   2.130799830  -0.187340759
C        1.231280264   2.840207113  -0.193362711
C        1.231093871   4.260454850  -0.186419303
C        0.000789711   4.970223180  -0.176083801
C        0.000855591   6.391071812  -0.167800826
C        1.230985059   7.101133812  -0.168189402
C        3.691377450   0.000699249  -0.179663838
C        2.461533021   0.710550128  -0.186328667
C        2.461451633   2.130590697  -0.199281673
C        3.690848374   2.840262067  -0.204606141
C        3.690740201   4.260228119  -0.198662433
C        2.461362333   4.970160469  -0.187622893
C        2.461257613   6.390720087  -0.174029357
C        3.690954138   7.101418385  -0.172736666
C        6.150764381   0.000351582  -0.173866776
C        4.920676489   0.710635901  -0.186600331
C        4.920402020   2.130663726  -0.199397956
C        6.150568010   2.840184556  -0.193436562
C        6.150474542   4.260427125  -0.186530456
C        4.920144981   4.970097287  -0.187862438
C        4.920494546   6.390658422  -0.174494790
C        6.150778897   7.101138824  -0.168639322
C        4.679438014   1.858724217   3.371451376
C        3.333232143   1.492028816   3.371135846
C        2.341787154   2.474014263   3.370695094
C        2.696566128   3.822919141   3.370860081
C        4.043300472   4.189525163   3.371314162
C        5.034518034   3.208014097   3.372059158
H        5.450809563   1.093052441   3.362482824
H        3.056548311   0.441060948   3.362234947
H        1.293722201   2.186363022   3.361420908
H        1.925405643   4.588718112   3.361696634
H        4.319837610   5.240597869   3.362319163
H        6.082592831   3.495472379   3.364290953
End final coordinates



     Writing output data file batch_graph+benzene.save/

     init_run     :     19.87s CPU     20.19s WALL (       1 calls)
     electrons    :   8595.37s CPU   8720.83s WALL (      44 calls)
     update_pot   :    153.01s CPU    156.51s WALL (      43 calls)
     forces       :    460.82s CPU    465.37s WALL (      44 calls)

     Called by init_run:
     wfcinit      :     15.56s CPU     15.71s WALL (       1 calls)
     potinit      :      2.37s CPU      2.47s WALL (       1 calls)
     hinit0       :      1.12s CPU      1.13s WALL (       1 calls)

     Called by electrons:
     c_bands      :   7153.76s CPU   7231.85s WALL (     269 calls)
     sum_band     :    881.46s CPU    900.71s WALL (     269 calls)
     v_of_rho     :    468.80s CPU    490.33s WALL (     299 calls)
     newd         :    167.06s CPU    176.53s WALL (     299 calls)
     mix_rho      :      9.31s CPU      9.61s WALL (     269 calls)

     Called by c_bands:
     init_us_2    :     28.90s CPU     29.00s WALL (    5830 calls)
     cegterg      :   7090.63s CPU   7168.01s WALL (    2690 calls)

     Called by sum_band:
     sum_band:bec :      1.05s CPU      1.05s WALL (    2690 calls)
     addusdens    :    120.94s CPU    130.42s WALL (     269 calls)

     Called by *egterg:
     h_psi        :   3591.98s CPU   3650.26s WALL (    9895 calls)
     s_psi        :   1066.56s CPU   1069.38s WALL (    9895 calls)
     g_psi        :      5.66s CPU      5.69s WALL (    7195 calls)
     cdiaghg      :    245.24s CPU    245.87s WALL (    9315 calls)

     Called by h_psi:
     h_psi:pot    :   3584.41s CPU   3635.62s WALL (    9895 calls)
     h_psi:calbec :   1140.76s CPU   1144.40s WALL (    9895 calls)
     vloc_psi     :   1373.51s CPU   1418.52s WALL (    9895 calls)
     add_vuspsi   :   1070.08s CPU   1072.67s WALL (    9895 calls)

     General routines
     calbec       :   1872.90s CPU   1878.68s WALL (   14345 calls)
     fft          :    295.89s CPU    306.95s WALL (   18894 calls)
     ffts         :      1.41s CPU      1.47s WALL (     568 calls)
     fftw         :   1547.70s CPU   1598.77s WALL ( 1255512 calls)
     interpolate  :      5.72s CPU      5.93s WALL (     299 calls)

     Parallel routines
     fft_scatt_xy :    165.51s CPU    171.65s WALL ( 1274974 calls)
     fft_scatt_yz :    279.32s CPU    300.78s WALL ( 1274974 calls)

     PWSCF        :      2h34m CPU      2h36m WALL


   This run was terminated on:  18: 2:25   2Dec2020            

=------------------------------------------------------------------------------=
   JOB DONE.
=------------------------------------------------------------------------------=
