
     Program PWSCF v.6.4.1 starts on  2Dec2020 at  6:47:41 

     This program is part of the open-source Quantum ESPRESSO suite
     for quantum simulation of materials; please cite
         "P. Giannozzi et al., J. Phys.:Condens. Matter 21 395502 (2009);
         "P. Giannozzi et al., J. Phys.:Condens. Matter 29 465901 (2017);
          URL http://www.quantum-espresso.org", 
     in publications or presentations arising from this work. More details at
     http://www.quantum-espresso.org/quote

     Parallel version (MPI), running on     8 processors

     MPI processes distributed on     1 nodes
     R & G space division:  proc/nbgrp/npool/nimage =       8
     Waiting for input...
     Reading input from standard input

     Current dimensions of program PWSCF are:
     Max number of different atomic species (ntypx) = 10
     Max number of k-points (npk) =  40000
     Max angular momentum in pseudopotentials (lmaxx) =  3

     IMPORTANT: XC functional enforced from input :
     Exchange-correlation      = VDW-DF ( 1  4  4  0 1 0)
     Any further DFT definition will be discarded
     Please, verify this is what you really want

               file C.pbe-rrkjus.UPF: wavefunction(s)  2S 2P renormalized

     Subspace diagonalization in iterative solution of the eigenvalue problem:
     a serial algorithm will be used

     Message from routine setup:
     DEPRECATED: symmetry with ibrav=0, use correct ibrav instead

     Parallelization info
     --------------------
     sticks:   dense  smooth     PW     G-vecs:    dense   smooth      PW
     Min         714     285     79               126154    31889    4649
     Max         715     286     80               126163    31900    4658
     Sum        5713    2283    637              1009261   255153   37237



     bravais-lattice index     =            0
     lattice parameter (alat)  =       4.6487  a.u.
     unit-cell volume          =   10440.3175 (a.u.)^3
     number of atoms/cell      =           36
     number of atomic types    =            2
     number of electrons       =       126.00
     number of Kohn-Sham states=           76
     kinetic-energy cutoff     =      32.0000  Ry
     charge density cutoff     =     320.0000  Ry
     convergence threshold     =      1.0E-06
     mixing beta               =       0.5000
     number of iterations used =            8  plain     mixing
     Exchange-correlation      = VDW-DF ( 1  4  4  0 1 0)
     nstep                     =          200


     celldm(1)=   4.648726  celldm(2)=   0.000000  celldm(3)=   0.000000
     celldm(4)=   0.000000  celldm(5)=   0.000000  celldm(6)=   0.000000

     crystal axes: (cart. coord. in units of alat)
               a(1) = (   3.000000   0.000000   0.000000 )  
               a(2) = (   0.000000   3.464102   0.000000 )  
               a(3) = (   0.000000   0.000000  10.000000 )  

     reciprocal axes: (cart. coord. in units 2 pi/alat)
               b(1) = (  0.333333  0.000000  0.000000 )  
               b(2) = (  0.000000  0.288675  0.000000 )  
               b(3) = (  0.000000  0.000000  0.100000 )  


     PseudoPot. # 1 for C  read from file:
     ../../pseudopotentials/C.pbe-rrkjus.UPF
     MD5 check sum: 00fb224312de0c5b6853bd333518df6f
     Pseudo is Ultrasoft, Zval =  4.0
     Generated by new atomic code, or converted to UPF format
     Using radial grid of  627 points,  4 beta functions with: 
                l(1) =   0
                l(2) =   0
                l(3) =   1
                l(4) =   1
     Q(r) pseudized with 0 coefficients 


     PseudoPot. # 2 for H  read from file:
     ../../pseudopotentials/H.pbe-rrkjus_psl.1.0.0.UPF
     MD5 check sum: 3f4114867bd07edc7f1424d066fc1888
     Pseudo is Ultrasoft, Zval =  1.0
     Generated using "atomic" code by A. Dal Corso v.6.3MaX
     Using radial grid of  929 points,  2 beta functions with: 
                l(1) =   0
                l(2) =   0
     Q(r) pseudized with 0 coefficients 


     vdW kernel table read from file vdW_kernel_table
     MD5 check sum: 48e77a2e26edf626eeb0eaa751ad5cac

     atomic species   valence    mass     pseudopotential
        C              4.00    12.01070     C ( 1.00)
        H              1.00     1.00790     H ( 1.00)

      2 Sym. Ops. (no inversion) found



   Cartesian axes

     site n.     atom                  positions (alat units)
         1           C   tau(   1) = (   0.5000000   0.0000000   0.0000000  )
         2           C   tau(   2) = (   0.0000000   0.2886752   0.0000000  )
         3           C   tau(   3) = (   0.0000000   0.8660255   0.0000000  )
         4           C   tau(   4) = (   0.5000000   1.1547006   0.0000000  )
         5           C   tau(   5) = (   0.5000000   1.7320509   0.0000000  )
         6           C   tau(   6) = (   0.0000000   2.0207261   0.0000000  )
         7           C   tau(   7) = (   0.0000000   2.5980764   0.0000000  )
         8           C   tau(   8) = (   0.5000000   2.8867516   0.0000000  )
         9           C   tau(   9) = (   1.5000001   0.0000000   0.0000000  )
        10           C   tau(  10) = (   1.0000001   0.2886752   0.0000000  )
        11           C   tau(  11) = (   1.0000001   0.8660255   0.0000000  )
        12           C   tau(  12) = (   1.5000001   1.1547006   0.0000000  )
        13           C   tau(  13) = (   1.5000001   1.7320509   0.0000000  )
        14           C   tau(  14) = (   1.0000001   2.0207261   0.0000000  )
        15           C   tau(  15) = (   1.0000001   2.5980764   0.0000000  )
        16           C   tau(  16) = (   1.5000001   2.8867516   0.0000000  )
        17           C   tau(  17) = (   2.5000002   0.0000000   0.0000000  )
        18           C   tau(  18) = (   2.0000002   0.2886752   0.0000000  )
        19           C   tau(  19) = (   2.0000002   0.8660255   0.0000000  )
        20           C   tau(  20) = (   2.5000002   1.1547006   0.0000000  )
        21           C   tau(  21) = (   2.5000002   1.7320509   0.0000000  )
        22           C   tau(  22) = (   2.0000002   2.0207261   0.0000000  )
        23           C   tau(  23) = (   2.0000002   2.5980764   0.0000000  )
        24           C   tau(  24) = (   2.5000002   2.8867516   0.0000000  )
        25           C   tau(  25) = (   1.5000001   0.5876840   1.2195123  )
        26           C   tau(  26) = (   1.0090387   0.8711902   1.2195123  )
        27           C   tau(  27) = (   1.0090387   1.4382110   1.2195123  )
        28           C   tau(  28) = (   1.5000001   1.7217173   1.2195123  )
        29           C   tau(  29) = (   1.9909616   1.4382110   1.2195123  )
        30           C   tau(  30) = (   1.9909616   0.8711902   1.2195123  )
        31           H   tau(  31) = (   1.5000001   0.1442909   1.2195123  )
        32           H   tau(  32) = (   0.6250718   0.6495777   1.2195123  )
        33           H   tau(  33) = (   0.6250718   1.6598235   1.2195123  )
        34           H   tau(  34) = (   1.5000001   2.1651104   1.2195123  )
        35           H   tau(  35) = (   2.3749284   1.6598235   1.2195123  )
        36           H   tau(  36) = (   2.3749284   0.6495777   1.2195123  )

     number of k points=     9  gaussian smearing, width (Ry)=  0.0200
                       cart. coord. in units 2pi/alat
        k(    1) = (   0.0000000   0.0000000   0.0000000), wk =   0.1250000
        k(    2) = (   0.0000000   0.0721688   0.0000000), wk =   0.2500000
        k(    3) = (   0.0000000  -0.1443376   0.0000000), wk =   0.1250000
        k(    4) = (   0.0833333   0.0000000   0.0000000), wk =   0.2500000
        k(    5) = (   0.0833333   0.0721688   0.0000000), wk =   0.5000000
        k(    6) = (   0.0833333  -0.1443376   0.0000000), wk =   0.2500000
        k(    7) = (  -0.1666667   0.0000000   0.0000000), wk =   0.1250000
        k(    8) = (  -0.1666667   0.0721688   0.0000000), wk =   0.2500000
        k(    9) = (  -0.1666667  -0.1443376   0.0000000), wk =   0.1250000

     Dense  grid:  1009261 G-vectors     FFT dimensions: (  80,  96, 270)

     Smooth grid:   255153 G-vectors     FFT dimensions: (  54,  60, 180)

     Estimated max dynamical RAM per process >     423.54 MB

     Estimated total dynamical RAM >       3.31 GB

     Initial potential from superposition of free atoms

     starting charge  125.99836, renormalised to  126.00000

     negative rho (up, down):  2.414E-04 0.000E+00


     %%%%%%%%%%%%%%%%%%%%%%%%%%%%%%%%%%%%%%%%%%%%%%%%%%%%%%%%%%%%%%%%%%%%%%%%
     %                                                                      %
     % You are using vdW-DF, which was implemented by the Thonhauser group. %
     % Please cite the following two papers that made this development      %
     % possible and the two reviews that describe the various versions:     %
     %                                                                      %
     %   T. Thonhauser et al., PRL 115, 136402 (2015).                      %
     %   T. Thonhauser et al., PRB 76, 125112 (2007).                       %
     %   K. Berland et al., Rep. Prog. Phys. 78, 066501 (2015).             %
     %   D.C. Langreth et al., J. Phys.: Condens. Matter 21, 084203 (2009). %
     %                                                                      %
     %                                                                      %
     % If you are calculating the stress with vdW-DF, please also cite:     %
     %                                                                      %
     %   R. Sabatini et al., J. Phys.: Condens. Matter 24, 424209 (2012).   %
     %                                                                      %
     %%%%%%%%%%%%%%%%%%%%%%%%%%%%%%%%%%%%%%%%%%%%%%%%%%%%%%%%%%%%%%%%%%%%%%%%


     Starting wfcs are  126 randomized atomic wfcs

     total cpu time spent up to now is       19.1 secs

     Self-consistent Calculation

     iteration #  1     ecut=    32.00 Ry     beta= 0.50
     Davidson diagonalization with overlap
     ethr =  1.00E-02,  avg # of iterations =  2.0

     negative rho (up, down):  2.041E-04 0.000E+00

     total cpu time spent up to now is       53.0 secs

     total energy              =    -350.86951907 Ry
     Harris-Foulkes estimate   =    -352.96896438 Ry
     estimated scf accuracy    <       4.24455800 Ry

     iteration #  2     ecut=    32.00 Ry     beta= 0.50
     Davidson diagonalization with overlap
     ethr =  3.37E-03,  avg # of iterations =  6.2

     negative rho (up, down):  5.148E-04 0.000E+00

     total cpu time spent up to now is       82.5 secs

     total energy              =    -351.20744445 Ry
     Harris-Foulkes estimate   =    -351.36254202 Ry
     estimated scf accuracy    <       0.39550530 Ry

     iteration #  3     ecut=    32.00 Ry     beta= 0.50
     Davidson diagonalization with overlap
     c_bands:  2 eigenvalues not converged
     ethr =  3.14E-04,  avg # of iterations = 10.3

     negative rho (up, down):  4.394E-04 0.000E+00

     total cpu time spent up to now is      115.3 secs

     total energy              =    -351.24591356 Ry
     Harris-Foulkes estimate   =    -351.26274721 Ry
     estimated scf accuracy    <       0.05273046 Ry

     iteration #  4     ecut=    32.00 Ry     beta= 0.50
     Davidson diagonalization with overlap
     ethr =  4.18E-05,  avg # of iterations =  7.2

     negative rho (up, down):  2.853E-04 0.000E+00

     total cpu time spent up to now is      147.6 secs

     total energy              =    -351.25389977 Ry
     Harris-Foulkes estimate   =    -351.25915072 Ry
     estimated scf accuracy    <       0.01619421 Ry

     iteration #  5     ecut=    32.00 Ry     beta= 0.50
     Davidson diagonalization with overlap
     ethr =  1.29E-05,  avg # of iterations =  4.1

     negative rho (up, down):  2.969E-04 0.000E+00

     total cpu time spent up to now is      175.5 secs

     total energy              =    -351.25717538 Ry
     Harris-Foulkes estimate   =    -351.25752031 Ry
     estimated scf accuracy    <       0.00262899 Ry

     iteration #  6     ecut=    32.00 Ry     beta= 0.50
     Davidson diagonalization with overlap
     ethr =  2.09E-06,  avg # of iterations =  6.9

     negative rho (up, down):  2.371E-04 0.000E+00

     total cpu time spent up to now is      205.5 secs

     total energy              =    -351.25756159 Ry
     Harris-Foulkes estimate   =    -351.25763435 Ry
     estimated scf accuracy    <       0.00026083 Ry

     iteration #  7     ecut=    32.00 Ry     beta= 0.50
     Davidson diagonalization with overlap
     ethr =  2.07E-07,  avg # of iterations =  2.3

     negative rho (up, down):  2.166E-04 0.000E+00

     total cpu time spent up to now is      231.5 secs

     total energy              =    -351.25761126 Ry
     Harris-Foulkes estimate   =    -351.25761011 Ry
     estimated scf accuracy    <       0.00002169 Ry

     iteration #  8     ecut=    32.00 Ry     beta= 0.50
     Davidson diagonalization with overlap
     ethr =  1.72E-08,  avg # of iterations =  2.2

     negative rho (up, down):  2.083E-04 0.000E+00

     total cpu time spent up to now is      261.1 secs

     total energy              =    -351.25761554 Ry
     Harris-Foulkes estimate   =    -351.25761655 Ry
     estimated scf accuracy    <       0.00000382 Ry

     iteration #  9     ecut=    32.00 Ry     beta= 0.50
     Davidson diagonalization with overlap
     ethr =  3.03E-09,  avg # of iterations =  2.1

     negative rho (up, down):  2.048E-04 0.000E+00

     total cpu time spent up to now is      287.7 secs

     End of self-consistent calculation

          k = 0.0000 0.0000 0.0000 ( 31971 PWs)   bands (ev):

   -21.9121 -20.4596 -20.4538 -19.9853 -19.9756 -19.5553 -18.5695 -18.5693
   -18.5623 -18.5601 -16.8305 -16.8151 -16.7192 -15.6356 -15.0583 -15.0582
   -15.0573 -15.0551 -13.2555 -13.2315 -13.0816 -13.0800 -13.0785 -13.0777
   -12.9376 -12.9375 -11.3403 -10.2656 -10.2647 -10.0087  -9.9188  -9.9171
    -9.7045  -9.3238  -9.0891  -9.0888  -9.0754  -9.0717  -8.9391  -8.9046
    -8.9020  -8.7589  -8.6603  -8.3900  -8.2130  -7.8282  -7.7057  -7.5858
    -7.5841  -7.0376  -6.7740  -6.7133  -6.2158  -6.1982  -6.1233  -6.0658
    -5.6141  -5.6131  -4.7980  -4.4769  -4.4610  -2.3699  -2.3691  -2.3683
    -2.3607  -0.6521  -0.0540   0.4199   0.5358   0.6999   1.3572   1.3664
     1.3810   1.3908   1.5707   1.9794

          k = 0.0000 0.0722 0.0000 ( 31929 PWs)   bands (ev):

   -21.8204 -21.0897 -19.8979 -19.8860 -19.6639 -19.5448 -19.1760 -19.1695
   -17.8008 -17.8000 -17.5860 -16.8205 -16.8151 -15.9293 -15.9290 -14.6455
   -14.5287 -14.5277 -13.6826 -13.6809 -13.2419 -13.2247 -12.4201 -12.4197
   -12.3557 -12.3552 -11.5512 -11.3306 -10.7260 -10.7254 -10.1236 -10.1228
    -9.9089  -9.7129  -9.3213  -9.1083  -8.8487  -8.6765  -8.6591  -8.5894
    -8.5882  -8.4179  -8.4159  -8.3409  -8.1490  -7.7890  -7.6106  -7.4137
    -7.0843  -6.9391  -6.8597  -6.7620  -6.6785  -6.6509  -5.9787  -5.8041
    -5.4034  -5.3686  -5.2584  -4.4742  -4.4700  -3.3754  -3.3632  -1.3989
    -1.3778  -0.0132   0.0917   0.3177   0.4675   0.5396   0.6225   0.8303
     1.2968   1.7824   1.8635   2.2085

          k = 0.0000-0.1443 0.0000 ( 31940 PWs)   bands (ev):

   -21.5525 -21.5388 -19.6724 -19.6285 -19.6261 -19.6106 -19.5035 -18.6851
   -18.6752 -16.9361 -16.9188 -16.9029 -16.8982 -16.7955 -16.7909 -14.1546
   -14.1543 -14.1416 -14.1381 -13.2459 -13.2243 -13.1516 -13.1457 -11.5453
   -11.5444 -11.5374 -11.5356 -11.3332 -11.3243 -11.3160 -11.3159 -11.3121
    -9.7219  -9.6158  -9.5942  -9.3207  -8.7085  -8.6596  -8.5913  -8.5654
    -8.2834  -8.2808  -8.2734  -8.2721  -7.6366  -7.3347  -7.3116  -7.3114
    -6.9739  -6.9546  -6.8935  -6.7194  -6.6942  -6.3398  -6.3087  -6.2890
    -6.2270  -4.7440  -4.6754  -4.3923  -4.3757  -4.2222  -4.1603  -0.5154
    -0.4460  -0.4458  -0.4277   0.3488   0.5156   0.5284   0.8569   1.2024
     1.2512   1.4304   1.4660   2.0521

          k = 0.0833 0.0000 0.0000 ( 31951 PWs)   bands (ev):

   -21.7898 -20.8178 -20.3403 -20.3339 -19.5748 -19.3827 -19.3676 -18.9133
   -17.5597 -17.5574 -16.8257 -16.8225 -16.6182 -16.2717 -15.7847 -15.5348
   -14.8850 -14.6223 -14.6211 -14.1278 -13.2360 -13.2333 -12.4066 -12.1614
   -11.7076 -11.4899 -11.4878 -11.3045 -10.1816  -9.9436  -9.9427  -9.8742
    -9.6683  -9.4489  -9.3262  -9.1569  -9.1554  -8.9813  -8.9798  -8.8653
    -8.7435  -8.7286  -8.5949  -8.2267  -8.0944  -8.0407  -8.0390  -7.6640
    -7.2927  -7.0763  -6.8860  -6.7444  -6.7205  -6.4416  -6.0864  -5.8743
    -5.2795  -5.2476  -4.6871  -4.5016  -4.4203  -3.6434  -3.3814  -1.4175
    -1.0841  -0.6987  -0.0292  -0.0145   0.1540   0.4894   0.5385   0.8743
     1.5508   1.7334   2.1686   2.2135

          k = 0.0833 0.0722 0.0000 ( 31951 PWs)   bands (ev):

   -21.6982 -20.9687 -20.7273 -20.0096 -19.5868 -19.5025 -18.8261 -18.5951
   -18.1375 -17.4760 -16.8910 -16.8217 -16.8088 -16.6016 -16.2359 -15.1385
   -14.6486 -14.5544 -14.0380 -13.9137 -13.2329 -13.2322 -12.2191 -12.2080
   -11.9864 -11.7765 -11.5151 -11.2974 -10.7248 -10.3405  -9.7735  -9.7283
    -9.6861  -9.6753  -9.3592  -9.3212  -9.1503  -8.9861  -8.8139  -8.7698
    -8.6630  -8.6347  -8.5086  -8.4759  -8.1564  -7.8153  -7.5217  -7.3359
    -7.3340  -6.9785  -6.7767  -6.7436  -6.4273  -6.3808  -6.1401  -6.0447
    -5.7585  -5.1629  -4.7596  -4.4968  -4.4515  -3.9808  -3.7602  -1.0546
    -0.7415  -0.5511  -0.0589   0.2759   0.4707   0.5235   0.7024   1.0036
     1.4379   1.6123   1.6848   1.9292

          k = 0.0833-0.1443 0.0000 ( 31876 PWs)   bands (ev):

   -21.4306 -21.4170 -20.4627 -20.4507 -19.5615 -18.5754 -18.5697 -18.5616
   -18.5551 -17.6638 -17.6554 -16.8245 -16.8196 -16.3121 -16.3014 -15.2497
   -15.2479 -13.2402 -13.2353 -13.0830 -13.0819 -13.0778 -13.0751 -13.0092
   -12.9986 -11.3946 -11.3783 -11.2889 -10.7042 -10.6963  -9.9221  -9.9127
    -9.6849  -9.4872  -9.4520  -9.3257  -9.0917  -9.0849  -9.0773  -9.0694
    -8.7611  -8.7040  -8.3082  -8.2554  -7.5895  -7.5819  -7.2688  -7.2584
    -7.1206  -6.7667  -6.7477  -6.6066  -6.5947  -6.2112  -6.1552  -6.1483
    -6.0977  -5.2039  -5.1249  -4.5468  -4.4260  -4.1238  -4.0632  -0.9073
    -0.8941   0.3190   0.4250   0.4764   0.5236   0.6379   1.0421   1.3509
     1.3691   1.3741   1.3809   1.4030

          k =-0.1667 0.0000 0.0000 ( 31854 PWs)   bands (ev):

   -21.4287 -21.4190 -19.9883 -19.9829 -19.9819 -19.9684 -19.5437 -17.6621
   -17.6575 -16.8403 -16.8287 -16.7226 -16.7168 -16.3146 -16.2980 -15.6358
   -15.6335 -15.2586 -15.2406 -13.2450 -13.2252 -13.0051 -13.0030 -11.3877
   -11.3861 -11.2696 -10.7060 -10.6940 -10.2697 -10.2687 -10.2622 -10.2618
    -9.6329  -9.4790  -9.4644  -9.3310  -8.9418  -8.9406  -8.9046  -8.9039
    -8.9029  -8.8980  -8.7321  -8.6987  -7.9437  -7.7269  -7.7120  -7.7049
    -7.2695  -7.2562  -6.9212  -6.8003  -6.7474  -6.6084  -6.5946  -5.2583
    -5.0928  -4.7983  -4.7809  -4.5589  -4.4004  -4.1236  -4.0696  -0.9315
    -0.8719  -0.6564  -0.6462   0.3462   0.3886   0.5632   0.5729   0.6179
     0.8917   1.3737   1.4162   2.1966

          k =-0.1667 0.0722 0.0000 ( 31908 PWs)   bands (ev):

   -21.3374 -21.3278 -20.6112 -20.6027 -19.5642 -19.1844 -19.1644 -17.5802
   -17.5756 -17.1531 -17.1455 -16.9921 -16.9807 -16.8138 -16.8106 -15.2350
   -15.2340 -14.3107 -14.2946 -13.5598 -13.5577 -13.2398 -13.2210 -11.5175
   -11.5051 -11.2621 -10.8181 -10.8175 -10.6026 -10.5906  -9.7382  -9.7257
    -9.6401  -9.3821  -9.3595  -9.3324  -9.2487  -9.2486  -9.2097  -9.2067
    -8.7742  -8.7591  -8.4463  -8.4146  -7.8981  -7.8949  -7.6318  -7.6232
    -7.1979  -6.9138  -6.7763  -6.7060  -6.6415  -6.6415  -6.6287  -5.2208
    -5.0551  -4.8882  -4.8658  -4.7669  -4.7069  -4.3539  -4.3420  -0.5032
    -0.5014  -0.2843  -0.2346   0.2258   0.2527   0.5574   0.5702   0.6639
     0.9968   1.5041   1.5278   1.6813

          k =-0.1667-0.1443 0.0000 ( 31784 PWs)   bands (ev):

   -21.0715 -21.0609 -21.0569 -21.0488 -19.5599 -18.2319 -18.2274 -18.2226
   -18.2093 -17.3492 -17.3451 -17.3390 -17.3235 -16.8196 -16.8176 -14.4512
   -14.4511 -14.4381 -14.4380 -13.2438 -13.2211 -12.9218 -12.9153 -12.9045
   -12.9012 -11.2553 -10.2968 -10.2870 -10.2778 -10.2641  -9.9290  -9.9250
    -9.9097  -9.9059  -9.6523  -9.3288  -9.1340  -9.1083  -9.0677  -8.9870
    -8.6457  -8.6152  -8.3732  -8.3713  -8.3711  -8.3634  -7.0971  -7.0531
    -7.0514  -7.0490  -7.0422  -6.8342  -6.7216  -5.8765  -5.7707  -5.7327
    -5.6835  -5.1470  -4.9542  -4.9436  -4.9147  -4.4165  -4.3520  -0.1864
    -0.1499  -0.1058  -0.0886   0.4528   0.5644   0.7824   1.0773   1.0898
     1.0983   1.1256   1.1576   1.3611

     the Fermi energy is    -2.3670 ev

!    total energy              =    -351.25761587 Ry
     Harris-Foulkes estimate   =    -351.25761618 Ry
     estimated scf accuracy    <       0.00000040 Ry

     The total energy is the sum of the following terms:

     one-electron contribution =   -4816.19574511 Ry
     hartree contribution      =    2428.07542323 Ry
     xc contribution           =    -112.30996068 Ry
     ewald contribution        =    2149.17548714 Ry
     smearing contrib. (-TS)   =      -0.00282045 Ry

     convergence has been achieved in   9 iterations

     Forces acting on atoms (cartesian axes, Ry/au):

     atom    1 type  1   force =     0.00071858    0.00115875    0.00034106
     atom    2 type  1   force =     0.00000000   -0.00073090    0.00153735
     atom    3 type  1   force =     0.00000000    0.00187244    0.00036721
     atom    4 type  1   force =     0.00013876   -0.00066121   -0.00474546
     atom    5 type  1   force =     0.00080249   -0.00018365   -0.00207180
     atom    6 type  1   force =     0.00000000   -0.00075484    0.00045768
     atom    7 type  1   force =     0.00000000    0.00015993    0.00071671
     atom    8 type  1   force =    -0.00025627   -0.00027219    0.00075209
     atom    9 type  1   force =     0.00000000    0.00147048   -0.00225806
     atom   10 type  1   force =     0.00059785    0.00019494   -0.00499383
     atom   11 type  1   force =     0.00113221    0.00076308   -0.00833295
     atom   12 type  1   force =     0.00000000   -0.00042717   -0.00987578
     atom   13 type  1   force =     0.00000000   -0.00023461   -0.00853560
     atom   14 type  1   force =     0.00081832   -0.00080807   -0.00497594
     atom   15 type  1   force =     0.00041267   -0.00103584    0.00049861
     atom   16 type  1   force =     0.00000000    0.00036117    0.00104131
     atom   17 type  1   force =    -0.00071858    0.00115875    0.00034106
     atom   18 type  1   force =    -0.00059785    0.00019494   -0.00499383
     atom   19 type  1   force =    -0.00113221    0.00076308   -0.00833295
     atom   20 type  1   force =    -0.00013876   -0.00066121   -0.00474546
     atom   21 type  1   force =    -0.00080249   -0.00018365   -0.00207180
     atom   22 type  1   force =    -0.00081832   -0.00080807   -0.00497594
     atom   23 type  1   force =    -0.00041267   -0.00103584    0.00049861
     atom   24 type  1   force =     0.00025627   -0.00027219    0.00075209
     atom   25 type  1   force =     0.00000000   -0.00539289    0.01123015
     atom   26 type  1   force =    -0.00192838   -0.00107731    0.00969064
     atom   27 type  1   force =    -0.00403405    0.00228829    0.01126516
     atom   28 type  1   force =     0.00000000    0.00294625    0.00966916
     atom   29 type  1   force =     0.00403405    0.00228829    0.01126516
     atom   30 type  1   force =     0.00192838   -0.00107731    0.00969064
     atom   31 type  2   force =     0.00000000    0.00560820    0.00034897
     atom   32 type  2   force =     0.00424680    0.00227450   -0.00010661
     atom   33 type  2   force =     0.00480305   -0.00259882    0.00039663
     atom   34 type  2   force =     0.00000000   -0.00496303   -0.00013428
     atom   35 type  2   force =    -0.00480305   -0.00259882    0.00039663
     atom   36 type  2   force =    -0.00424680    0.00227450   -0.00010661

     Total force =     0.037564     Total SCF correction =     0.001415

     BFGS Geometry Optimization

     number of scf cycles    =   1
     number of bfgs steps    =   0

     energy   new            =    -351.2576158658 Ry

     new trust radius        =       0.0124579111 bohr
     new conv_thr            =       0.0000010000 Ry


ATOMIC_POSITIONS (angstrom)
C        1.230380256   0.000613186   0.000180484
C        0.000000000   0.709754055   0.000813531
C        0.000000000   2.131413345   0.000194317
C        1.230073427   2.840213427  -0.002511188
C        1.230424661   4.260747803  -0.001096350
C        0.000000000   4.970586373   0.000242194
C        0.000000000   6.391352112   0.000379265
C        1.229864388   7.101264274   0.000397986
C        3.690000000   0.000778147  -0.001194912
C        2.460316371   0.710243988  -0.002642622
C        2.460599141   2.130826300  -0.004409610
C        3.690000000   2.840337278  -0.005226035
C        3.690000000   4.260720836  -0.004516846
C        2.460433035   4.970558206  -0.002633157
C        2.460218378   6.390719337   0.000263855
C        3.690000000   7.101599433   0.000551036
C        6.149619744   0.000613186   0.000180484
C        4.919683629   0.710243988  -0.002642622
C        4.919400859   2.130826300  -0.004409610
C        6.149926573   2.840213427  -0.002511188
C        6.149575339   4.260747803  -0.001096350
C        4.919566965   4.970558206  -0.002633157
C        4.919781622   6.390719337   0.000263855
C        6.150135612   7.101264274   0.000397986
C        3.690000000   1.442848714   3.005942741
C        2.481214460   2.142557707   3.005128065
C        2.480100185   3.539209767   3.005961267
C        3.690000000   4.236983233   3.005116701
C        4.899899815   3.539209767   3.005961267
C        4.898785540   2.142557707   3.005128065
H        3.690000000   0.357923257   3.000184666
H        1.539923936   1.599164724   2.999943586
H        1.540218289   4.081790302   3.000209885
H        3.690000000   5.323544798   2.999928941
H        5.839781711   4.081790302   3.000209885
H        5.840076064   1.599164724   2.999943586



     Writing output data file batch_graph+benzene.save/
     NEW-OLD atomic charge density approx. for the potential

     negative rho (up, down):  2.054E-04 0.000E+00

     total cpu time spent up to now is      301.8 secs

     Self-consistent Calculation

     iteration #  1     ecut=    32.00 Ry     beta= 0.50
     Davidson diagonalization with overlap
     ethr =  1.00E-06,  avg # of iterations =  3.0

     negative rho (up, down):  2.054E-04 0.000E+00

     total cpu time spent up to now is      339.6 secs

     total energy              =    -351.25875177 Ry
     Harris-Foulkes estimate   =    -351.25886011 Ry
     estimated scf accuracy    <       0.00025429 Ry

     iteration #  2     ecut=    32.00 Ry     beta= 0.50
     Davidson diagonalization with overlap
     ethr =  2.02E-07,  avg # of iterations =  2.0

     negative rho (up, down):  2.055E-04 0.000E+00

     total cpu time spent up to now is      366.9 secs

     total energy              =    -351.25879045 Ry
     Harris-Foulkes estimate   =    -351.25879737 Ry
     estimated scf accuracy    <       0.00003068 Ry

     iteration #  3     ecut=    32.00 Ry     beta= 0.50
     Davidson diagonalization with overlap
     ethr =  2.43E-08,  avg # of iterations =  2.0

     negative rho (up, down):  2.057E-04 0.000E+00

     total cpu time spent up to now is      393.9 secs

     total energy              =    -351.25879447 Ry
     Harris-Foulkes estimate   =    -351.25879587 Ry
     estimated scf accuracy    <       0.00000742 Ry

     iteration #  4     ecut=    32.00 Ry     beta= 0.50
     Davidson diagonalization with overlap
     ethr =  5.89E-09,  avg # of iterations =  2.1

     negative rho (up, down):  2.058E-04 0.000E+00

     total cpu time spent up to now is      420.3 secs

     total energy              =    -351.25879567 Ry
     Harris-Foulkes estimate   =    -351.25879617 Ry
     estimated scf accuracy    <       0.00000210 Ry

     iteration #  5     ecut=    32.00 Ry     beta= 0.50
     Davidson diagonalization with overlap
     ethr =  1.66E-09,  avg # of iterations =  2.2

     negative rho (up, down):  2.054E-04 0.000E+00

     total cpu time spent up to now is      445.7 secs

     End of self-consistent calculation

          k = 0.0000 0.0000 0.0000 ( 31971 PWs)   bands (ev):

   -21.9161 -20.4626 -20.4583 -19.9891 -19.9790 -19.5328 -18.5741 -18.5713
   -18.5672 -18.5653 -16.8273 -16.8111 -16.7247 -15.6363 -15.0653 -15.0617
   -15.0602 -15.0588 -13.2668 -13.2402 -13.0872 -13.0859 -13.0843 -13.0815
   -12.9427 -12.9418 -11.3503 -10.2750 -10.2716 -10.0111  -9.9202  -9.9184
    -9.7476  -9.3076  -9.0906  -9.0901  -9.0799  -9.0774  -8.9463  -8.9038
    -8.9027  -8.7706  -8.6708  -8.3877  -8.2186  -7.8273  -7.7080  -7.5939
    -7.5926  -7.0329  -6.7881  -6.7229  -6.2151  -6.1997  -6.1285  -6.0723
    -5.6239  -5.6122  -4.8010  -4.4738  -4.4606  -2.3775  -2.3723  -2.3694
    -2.3648  -0.6519  -0.0454   0.4091   0.5262   0.6992   1.3520   1.3596
     1.3770   1.3861   1.5730   1.9808

          k = 0.0000 0.0722 0.0000 ( 31929 PWs)   bands (ev):

   -21.8243 -21.0936 -19.9014 -19.8894 -19.6643 -19.5262 -19.1795 -19.1744
   -17.8055 -17.8034 -17.5902 -16.8172 -16.8112 -15.9339 -15.9327 -14.6473
   -14.5331 -14.5328 -13.6868 -13.6866 -13.2538 -13.2340 -12.4245 -12.4232
   -12.3616 -12.3603 -11.5529 -11.3408 -10.7338 -10.7310 -10.1271 -10.1261
    -9.9113  -9.7563  -9.3051  -9.1110  -8.8559  -8.6876  -8.6695  -8.5920
    -8.5893  -8.4195  -8.4194  -8.3422  -8.1570  -7.7836  -7.6127  -7.4154
    -7.0829  -6.9479  -6.8619  -6.7761  -6.6884  -6.6561  -5.9773  -5.8145
    -5.4042  -5.3703  -5.2642  -4.4713  -4.4683  -3.3793  -3.3678  -1.4024
    -1.3823  -0.0135   0.0982   0.3130   0.4618   0.5304   0.6116   0.8293
     1.3017   1.7885   1.8628   2.2094

          k = 0.0000-0.1443 0.0000 ( 31940 PWs)   bands (ev):

   -21.5555 -21.5436 -19.6662 -19.6323 -19.6285 -19.6150 -19.4920 -18.6879
   -18.6805 -16.9361 -16.9215 -16.9050 -16.9050 -16.7936 -16.7901 -14.1583
   -14.1574 -14.1468 -14.1454 -13.2568 -13.2337 -13.1547 -13.1480 -11.5503
   -11.5493 -11.5432 -11.5429 -11.3388 -11.3269 -11.3213 -11.3200 -11.3198
    -9.7650  -9.6169  -9.5978  -9.3044  -8.7207  -8.6699  -8.5961  -8.5760
    -8.2859  -8.2852  -8.2750  -8.2735  -7.6267  -7.3362  -7.3148  -7.3140
    -6.9761  -6.9517  -6.8960  -6.7332  -6.7046  -6.3412  -6.3163  -6.3009
    -6.2345  -4.7378  -4.6709  -4.3951  -4.3819  -4.2264  -4.1650  -0.5183
    -0.4499  -0.4492  -0.4334   0.3505   0.5033   0.5188   0.8662   1.2009
     1.2537   1.4269   1.4663   2.0599

          k = 0.0833 0.0000 0.0000 ( 31951 PWs)   bands (ev):

   -21.7937 -20.8218 -20.3432 -20.3385 -19.5528 -19.3874 -19.3698 -18.9176
   -17.5633 -17.5617 -16.8221 -16.8186 -16.6240 -16.2756 -15.7908 -15.5355
   -14.8855 -14.6278 -14.6262 -14.1345 -13.2480 -13.2427 -12.4087 -12.1678
   -11.7151 -11.4941 -11.4931 -11.3149 -10.1823  -9.9450  -9.9439  -9.8764
    -9.7125  -9.4557  -9.3103  -9.1600  -9.1598  -8.9841  -8.9832  -8.8694
    -8.7532  -8.7398  -8.6011  -8.2259  -8.0994  -8.0487  -8.0473  -7.6635
    -7.2864  -7.0796  -6.8901  -6.7545  -6.7303  -6.4462  -6.0968  -5.8727
    -5.2800  -5.2494  -4.6878  -4.4988  -4.4226  -3.6463  -3.3885  -1.4176
    -1.0904  -0.6986  -0.0343  -0.0203   0.1604   0.4774   0.5280   0.8735
     1.5525   1.7361   2.1646   2.2136

          k = 0.0833 0.0722 0.0000 ( 31951 PWs)   bands (ev):

   -21.7021 -20.9726 -20.7313 -20.0132 -19.5737 -19.4965 -18.8303 -18.5993
   -18.1417 -17.4802 -16.8924 -16.8182 -16.8074 -16.6062 -16.2397 -15.1441
   -14.6547 -14.5564 -14.0401 -13.9190 -13.2444 -13.2421 -12.2254 -12.2119
   -11.9929 -11.7793 -11.5168 -11.3079 -10.7301 -10.3452  -9.7757  -9.7356
    -9.7147  -9.6884  -9.3646  -9.3066  -9.1575  -8.9894  -8.8192  -8.7726
    -8.6734  -8.6425  -8.5149  -8.4768  -8.1598  -7.8149  -7.5229  -7.3424
    -7.3343  -6.9768  -6.7888  -6.7544  -6.4328  -6.3845  -6.1432  -6.0481
    -5.7612  -5.1665  -4.7575  -4.4947  -4.4520  -3.9871  -3.7632  -1.0609
    -0.7428  -0.5572  -0.0593   0.2808   0.4621   0.5120   0.6948   1.0025
     1.4421   1.6137   1.6816   1.9259

          k = 0.0833-0.1443 0.0000 ( 31876 PWs)   bands (ev):

   -21.4337 -21.4218 -20.4657 -20.4554 -19.5380 -18.5780 -18.5731 -18.5671
   -18.5601 -17.6666 -17.6608 -16.8205 -16.8163 -16.3155 -16.3049 -15.2551
   -15.2546 -13.2492 -13.2464 -13.0886 -13.0848 -13.0803 -13.0797 -13.0117
   -13.0026 -11.3985 -11.3860 -11.2995 -10.7070 -10.6997  -9.9264  -9.9204
    -9.7289  -9.4880  -9.4551  -9.3095  -9.0964  -9.0882  -9.0807  -9.0778
    -8.7692  -8.7158  -8.3093  -8.2590  -7.5938  -7.5824  -7.2731  -7.2579
    -7.1115  -6.7758  -6.7623  -6.6122  -6.6037  -6.2127  -6.1586  -6.1510
    -6.1041  -5.2032  -5.1302  -4.5431  -4.4258  -4.1275  -4.0664  -0.9137
    -0.9001   0.3155   0.4212   0.4738   0.5198   0.6270   1.0492   1.3479
     1.3663   1.3705   1.3755   1.4015

          k =-0.1667 0.0000 0.0000 ( 31854 PWs)   bands (ev):

   -21.4310 -21.4246 -19.9905 -19.9850 -19.9842 -19.9759 -19.5220 -17.6662
   -17.6616 -16.8366 -16.8250 -16.7258 -16.7205 -16.3187 -16.3058 -15.6420
   -15.6393 -15.2565 -15.2437 -13.2543 -13.2372 -13.0122 -13.0102 -11.3888
   -11.3875 -11.2802 -10.7133 -10.7002 -10.2703 -10.2690 -10.2683 -10.2647
    -9.6780  -9.4804  -9.4664  -9.3148  -8.9442  -8.9429  -8.9123  -8.9110
    -8.9083  -8.9048  -8.7414  -8.7114  -7.9376  -7.7290  -7.7147  -7.7105
    -7.2805  -7.2646  -6.9195  -6.8089  -6.7619  -6.6051  -6.5958  -5.2551
    -5.0957  -4.7997  -4.7798  -4.5567  -4.4019  -4.1301  -4.0775  -0.9293
    -0.8735  -0.6633  -0.6528   0.3408   0.3825   0.5517   0.5732   0.6085
     0.8969   1.3727   1.4159   2.2012

          k =-0.1667 0.0722 0.0000 ( 31908 PWs)   bands (ev):

   -21.3397 -21.3334 -20.6134 -20.6082 -19.5409 -19.1865 -19.1701 -17.5842
   -17.5796 -17.1555 -17.1513 -16.9950 -16.9843 -16.8112 -16.8079 -15.2407
   -15.2395 -14.3102 -14.2989 -13.5657 -13.5637 -13.2494 -13.2329 -11.5170
   -11.5093 -11.2729 -10.8202 -10.8200 -10.6100 -10.5969  -9.7479  -9.7320
    -9.6832  -9.3835  -9.3618  -9.3166  -9.2541  -9.2505  -9.2125  -9.2098
    -8.7830  -8.7673  -8.4509  -8.4179  -7.9017  -7.9011  -7.6404  -7.6292
    -7.1902  -6.9185  -6.7877  -6.7124  -6.6477  -6.6406  -6.6337  -5.2169
    -5.0573  -4.8869  -4.8678  -4.7705  -4.7117  -4.3561  -4.3451  -0.5099
    -0.5075  -0.2837  -0.2363   0.2207   0.2466   0.5468   0.5579   0.6639
     1.0015   1.5024   1.5270   1.6856

          k =-0.1667-0.1443 0.0000 ( 31784 PWs)   bands (ev):

   -21.0733 -21.0652 -21.0597 -21.0556 -19.5363 -18.2339 -18.2296 -18.2270
   -18.2168 -17.3517 -17.3490 -17.3430 -17.3289 -16.8163 -16.8143 -14.4568
   -14.4539 -14.4464 -14.4434 -13.2532 -13.2328 -12.9207 -12.9157 -12.9089
   -12.9059 -11.2662 -10.3022 -10.2907 -10.2876 -10.2732  -9.9315  -9.9299
    -9.9107  -9.9087  -9.6969  -9.3126  -9.1325  -9.1116  -9.0727  -8.9891
    -8.6540  -8.6269  -8.3812  -8.3767  -8.3738  -8.3691  -7.0879  -7.0574
    -7.0562  -7.0494  -7.0459  -6.8421  -6.7373  -5.8758  -5.7747  -5.7351
    -5.6920  -5.1430  -4.9560  -4.9469  -4.9178  -4.4162  -4.3541  -0.1892
    -0.1578  -0.1107  -0.0975   0.4442   0.5537   0.7801   1.0754   1.0863
     1.0974   1.1234   1.1597   1.3673

     the Fermi energy is    -2.3710 ev

!    total energy              =    -351.25879603 Ry
     Harris-Foulkes estimate   =    -351.25879613 Ry
     estimated scf accuracy    <       0.00000023 Ry

     The total energy is the sum of the following terms:

     one-electron contribution =   -4813.28397855 Ry
     hartree contribution      =    2426.61285120 Ry
     xc contribution           =    -112.31592140 Ry
     ewald contribution        =    2147.73107287 Ry
     smearing contrib. (-TS)   =      -0.00282015 Ry

     convergence has been achieved in   5 iterations

     Forces acting on atoms (cartesian axes, Ry/au):

     atom    1 type  1   force =    -0.00001998   -0.00057487    0.00018408
     atom    2 type  1   force =     0.00000000    0.00061270    0.00227741
     atom    3 type  1   force =     0.00000000    0.00063290   -0.00021300
     atom    4 type  1   force =     0.00068546    0.00059321   -0.00419572
     atom    5 type  1   force =    -0.00003913   -0.00056283   -0.00242368
     atom    6 type  1   force =     0.00000000   -0.00128410    0.00068420
     atom    7 type  1   force =     0.00000000   -0.00011752    0.00138869
     atom    8 type  1   force =     0.00059102    0.00013942    0.00085307
     atom    9 type  1   force =     0.00000000    0.00077656   -0.00354893
     atom   10 type  1   force =     0.00039919    0.00114673   -0.00451973
     atom   11 type  1   force =    -0.00012625   -0.00050436   -0.00781408
     atom   12 type  1   force =     0.00000000    0.00049467   -0.00984547
     atom   13 type  1   force =     0.00000000   -0.00078265   -0.00857840
     atom   14 type  1   force =     0.00033516   -0.00041031   -0.00444893
     atom   15 type  1   force =     0.00006487    0.00010236    0.00010432
     atom   16 type  1   force =     0.00000000    0.00040489    0.00159144
     atom   17 type  1   force =     0.00001998   -0.00057487    0.00018408
     atom   18 type  1   force =    -0.00039919    0.00114673   -0.00451973
     atom   19 type  1   force =     0.00012625   -0.00050436   -0.00781408
     atom   20 type  1   force =    -0.00068546    0.00059321   -0.00419572
     atom   21 type  1   force =     0.00003913   -0.00056283   -0.00242368
     atom   22 type  1   force =    -0.00033516   -0.00041031   -0.00444893
     atom   23 type  1   force =    -0.00006487    0.00010236    0.00010432
     atom   24 type  1   force =    -0.00059102    0.00013942    0.00085307
     atom   25 type  1   force =     0.00000000    0.00640373    0.01004764
     atom   26 type  1   force =     0.00400279    0.00191169    0.00936185
     atom   27 type  1   force =     0.00547065   -0.00284328    0.01006684
     atom   28 type  1   force =     0.00000000   -0.00483051    0.00934771
     atom   29 type  1   force =    -0.00547065   -0.00284328    0.01006684
     atom   30 type  1   force =    -0.00400279    0.00191169    0.00936185
     atom   31 type  2   force =     0.00000000   -0.00152585    0.00064812
     atom   32 type  2   force =     0.00016802   -0.00006146    0.00016907
     atom   33 type  2   force =    -0.00087625    0.00056709    0.00069378
     atom   34 type  2   force =     0.00000000    0.00020838    0.00013884
     atom   35 type  2   force =     0.00087625    0.00056709    0.00069378
     atom   36 type  2   force =    -0.00016802   -0.00006146    0.00016907

     Total force =     0.034760     Total SCF correction =     0.001273

     number of scf cycles    =   2
     number of bfgs steps    =   1

     energy   old            =    -351.2576158658 Ry
     energy   new            =    -351.2587960327 Ry

     CASE: energy  _new < energy  _old

     new trust radius        =       0.0137037022 bohr
     new conv_thr            =       0.0000010000 Ry


ATOMIC_POSITIONS (angstrom)
C        1.230642860   0.000872843   0.000363557
C        0.000000000   0.709665767   0.002075738
C        0.000000000   2.132304398   0.000267298
C        1.230332219   2.840145309  -0.005551802
C        1.230712856   4.260509248  -0.002602513
C        0.000000000   4.969916553   0.000619832
C        0.000000000   6.391376425   0.001066403
C        1.229946993   7.101204604   0.000936664
C        3.690000000   0.001562297  -0.003110382
C        2.460660378   0.710663028  -0.005873897
C        2.460984301   2.130959323  -0.009883657
C        3.690000000   2.840326908  -0.011890067
C        3.690000000   4.260396872  -0.010297373
C        2.460840133   4.970132254  -0.005836374
C        2.460392235   6.390362994   0.000481748
C        3.690000000   7.101856677   0.001420726
C        6.149357140   0.000872843   0.000363557
C        4.919339622   0.710663028  -0.005873897
C        4.919015699   2.130959323  -0.009883657
C        6.149667781   2.840145309  -0.005551802
C        6.149287144   4.260509248  -0.002602513
C        4.919159867   4.970132254  -0.005836374
C        4.919607765   6.390362994   0.000481748
C        6.150053007   7.101204604   0.000936664
C        3.690000000   1.442765699   3.013174128
C        2.481701864   2.142732041   3.011576896
C        2.480243495   3.539206935   3.013211537
C        3.690000000   4.236626496   3.011553235
C        4.899756505   3.539206935   3.013211537
C        4.898298136   2.142732041   3.011576896
H        3.690000000   0.359559241   3.000510772
H        1.541562298   1.599996480   2.999954769
H        1.541749369   4.080989936   3.000567591
H        3.690000000   5.321752300   2.999920651
H        5.838250631   4.080989936   3.000567591
H        5.838437702   1.599996480   2.999954769



     Writing output data file batch_graph+benzene.save/
     NEW-OLD atomic charge density approx. for the potential

     negative rho (up, down):  2.066E-04 0.000E+00

     total cpu time spent up to now is      459.9 secs

     Self-consistent Calculation

     iteration #  1     ecut=    32.00 Ry     beta= 0.50
     Davidson diagonalization with overlap
     ethr =  1.00E-06,  avg # of iterations =  3.0

     negative rho (up, down):  2.065E-04 0.000E+00

     total cpu time spent up to now is      498.8 secs

     total energy              =    -351.25998656 Ry
     Harris-Foulkes estimate   =    -351.26013272 Ry
     estimated scf accuracy    <       0.00032888 Ry

     iteration #  2     ecut=    32.00 Ry     beta= 0.50
     Davidson diagonalization with overlap
     ethr =  2.61E-07,  avg # of iterations =  2.0

     negative rho (up, down):  2.067E-04 0.000E+00

     total cpu time spent up to now is      526.5 secs

     total energy              =    -351.26004451 Ry
     Harris-Foulkes estimate   =    -351.26005280 Ry
     estimated scf accuracy    <       0.00003751 Ry

     iteration #  3     ecut=    32.00 Ry     beta= 0.50
     Davidson diagonalization with overlap
     ethr =  2.98E-08,  avg # of iterations =  2.0

     negative rho (up, down):  2.072E-04 0.000E+00

     total cpu time spent up to now is      553.0 secs

     total energy              =    -351.26005043 Ry
     Harris-Foulkes estimate   =    -351.26005062 Ry
     estimated scf accuracy    <       0.00000729 Ry

     iteration #  4     ecut=    32.00 Ry     beta= 0.50
     Davidson diagonalization with overlap
     ethr =  5.78E-09,  avg # of iterations =  2.0

     negative rho (up, down):  2.077E-04 0.000E+00

     total cpu time spent up to now is      579.2 secs

     total energy              =    -351.26005145 Ry
     Harris-Foulkes estimate   =    -351.26005142 Ry
     estimated scf accuracy    <       0.00000103 Ry

     iteration #  5     ecut=    32.00 Ry     beta= 0.50
     Davidson diagonalization with overlap
     ethr =  8.19E-10,  avg # of iterations =  2.0

     negative rho (up, down):  2.065E-04 0.000E+00

     total cpu time spent up to now is      605.8 secs

     End of self-consistent calculation

          k = 0.0000 0.0000 0.0000 ( 31971 PWs)   bands (ev):

   -21.9196 -20.4658 -20.4621 -19.9925 -19.9823 -19.5355 -18.5776 -18.5747
   -18.5707 -18.5698 -16.8303 -16.8132 -16.7294 -15.6387 -15.0708 -15.0653
   -15.0650 -15.0600 -13.2705 -13.2442 -13.0917 -13.0898 -13.0897 -13.0843
   -12.9473 -12.9455 -11.3571 -10.2814 -10.2757 -10.0131  -9.9233  -9.9205
    -9.7549  -9.3075  -9.0928  -9.0916  -9.0843  -9.0829  -8.9511  -8.9062
    -8.9050  -8.7758  -8.6743  -8.3866  -8.2214  -7.8283  -7.7100  -7.5997
    -7.5972  -7.0420  -6.7900  -6.7246  -6.2154  -6.2010  -6.1318  -6.0796
    -5.6300  -5.6139  -4.8034  -4.4779  -4.4667  -2.3835  -2.3756  -2.3703
    -2.3688  -0.6544  -0.0417   0.4106   0.5268   0.6968   1.3486   1.3549
     1.3725   1.3817   1.5738   1.9827

          k = 0.0000 0.0722 0.0000 ( 31929 PWs)   bands (ev):

   -21.8278 -21.0971 -19.9047 -19.8928 -19.6670 -19.5294 -19.1829 -19.1788
   -17.8093 -17.8068 -17.5939 -16.8208 -16.8133 -15.9375 -15.9366 -14.6502
   -14.5373 -14.5364 -13.6913 -13.6901 -13.2580 -13.2384 -12.4285 -12.4265
   -12.3668 -12.3637 -11.5558 -11.3477 -10.7396 -10.7347 -10.1303 -10.1299
    -9.9131  -9.7635  -9.3050  -9.1130  -8.8606  -8.6912  -8.6728  -8.5961
    -8.5911  -8.4238  -8.4215  -8.3451  -8.1621  -7.7823  -7.6146  -7.4176
    -7.0879  -6.9534  -6.8639  -6.7780  -6.6898  -6.6666  -5.9791  -5.8206
    -5.4046  -5.3718  -5.2687  -4.4754  -4.4741  -3.3831  -3.3723  -1.4052
    -1.3862  -0.0153   0.1013   0.3146   0.4574   0.5310   0.6062   0.8268
     1.3046   1.7894   1.8611   2.2086

          k = 0.0000-0.1443 0.0000 ( 31940 PWs)   bands (ev):

   -21.5568 -21.5493 -19.6692 -19.6336 -19.6297 -19.6206 -19.4977 -18.6916
   -18.6841 -16.9378 -16.9238 -16.9094 -16.9089 -16.7968 -16.7951 -14.1604
   -14.1587 -14.1526 -14.1520 -13.2604 -13.2380 -13.1585 -13.1508 -11.5556
   -11.5522 -11.5485 -11.5467 -11.3431 -11.3292 -11.3263 -11.3250 -11.3246
    -9.7721  -9.6188  -9.5994  -9.3044  -8.7248  -8.6731  -8.5975  -8.5847
    -8.2900  -8.2868  -8.2798  -8.2759  -7.6248  -7.3384  -7.3160  -7.3156
    -6.9785  -6.9539  -6.9061  -6.7373  -6.7061  -6.3427  -6.3203  -6.3084
    -6.2409  -4.7359  -4.6694  -4.3986  -4.3863  -4.2337  -4.1746  -0.5200
    -0.4528  -0.4516  -0.4389   0.3522   0.5020   0.5196   0.8694   1.1987
     1.2535   1.4238   1.4633   2.0612

          k = 0.0833 0.0000 0.0000 ( 31951 PWs)   bands (ev):

   -21.7972 -20.8253 -20.3463 -20.3422 -19.5543 -19.3911 -19.3743 -18.9213
   -17.5663 -17.5659 -16.8253 -16.8208 -16.6285 -16.2793 -15.7953 -15.5379
   -14.8879 -14.6319 -14.6303 -14.1391 -13.2521 -13.2471 -12.4117 -12.1724
   -11.7201 -11.4977 -11.4973 -11.3221 -10.1847  -9.9483  -9.9460  -9.8781
    -9.7201  -9.4604  -9.3103  -9.1641  -9.1628  -8.9878  -8.9863  -8.8716
    -8.7588  -8.7448  -8.6026  -8.2260  -8.1022  -8.0545  -8.0519  -7.6656
    -7.2883  -7.0822  -6.8953  -6.7593  -6.7321  -6.4511  -6.1029  -5.8745
    -5.2806  -5.2517  -4.6895  -4.5028  -4.4292  -3.6503  -3.3936  -1.4196
    -1.0945  -0.7010  -0.0381  -0.0241   0.1632   0.4775   0.5273   0.8711
     1.5543   1.7372   2.1620   2.2128

          k = 0.0833 0.0722 0.0000 ( 31951 PWs)   bands (ev):

   -21.7056 -20.9762 -20.7347 -20.0166 -19.5756 -19.5006 -18.8340 -18.6030
   -18.1454 -17.4839 -16.8949 -16.8211 -16.8108 -16.6104 -16.2433 -15.1483
   -14.6591 -14.5593 -14.0431 -13.9232 -13.2485 -13.2466 -12.2299 -12.2155
   -11.9975 -11.7825 -11.5197 -11.3150 -10.7343 -10.3492  -9.7776  -9.7399
    -9.7204  -9.6920  -9.3691  -9.3069  -9.1623  -8.9916  -8.8214  -8.7758
    -8.6769  -8.6477  -8.5171  -8.4794  -8.1633  -7.8155  -7.5257  -7.3477
    -7.3364  -6.9855  -6.7905  -6.7564  -6.4372  -6.3878  -6.1461  -6.0516
    -5.7638  -5.1689  -4.7573  -4.4991  -4.4573  -3.9934  -3.7672  -1.0651
    -0.7450  -0.5616  -0.0611   0.2835   0.4628   0.5119   0.6898   1.0001
     1.4447   1.6154   1.6786   1.9227

          k = 0.0833-0.1443 0.0000 ( 31876 PWs)   bands (ev):

   -21.4350 -21.4275 -20.4670 -20.4611 -19.5404 -18.5796 -18.5769 -18.5709
   -18.5655 -17.6703 -17.6643 -16.8226 -16.8198 -16.3177 -16.3097 -15.2602
   -15.2584 -13.2532 -13.2502 -13.0931 -13.0881 -13.0853 -13.0818 -13.0133
   -13.0081 -11.4003 -11.3929 -11.3067 -10.7091 -10.7043  -9.9302  -9.9254
    -9.7364  -9.4897  -9.4567  -9.3094  -9.0979  -9.0911  -9.0879  -9.0823
    -8.7721  -8.7200  -8.3104  -8.2605  -7.5972  -7.5853  -7.2766  -7.2604
    -7.1190  -6.7769  -6.7645  -6.6163  -6.6094  -6.2140  -6.1621  -6.1526
    -6.1098  -5.2034  -5.1335  -4.5451  -4.4329  -4.1310  -4.0725  -0.9188
    -0.9039   0.3175   0.4213   0.4733   0.5207   0.6219   1.0516   1.3452
     1.3623   1.3677   1.3714   1.3983

          k =-0.1667 0.0000 0.0000 ( 31854 PWs)   bands (ev):

   -21.4331 -21.4295 -19.9937 -19.9880 -19.9852 -19.9822 -19.5252 -17.6694
   -17.6655 -16.8381 -16.8280 -16.7301 -16.7240 -16.3215 -16.3119 -15.6462
   -15.6441 -15.2566 -15.2485 -13.2585 -13.2414 -13.0171 -13.0151 -11.3916
   -11.3900 -11.2874 -10.7185 -10.7042 -10.2741 -10.2734 -10.2688 -10.2687
    -9.6859  -9.4815  -9.4685  -9.3146  -8.9477  -8.9452  -8.9194  -8.9157
    -8.9120  -8.9084  -8.7439  -8.7166  -7.9347  -7.7308  -7.7172  -7.7141
    -7.2874  -7.2691  -6.9322  -6.8095  -6.7646  -6.6051  -6.5997  -5.2530
    -5.0991  -4.8007  -4.7808  -4.5600  -4.4087  -4.1352  -4.0846  -0.9294
    -0.8775  -0.6678  -0.6585   0.3411   0.3823   0.5489   0.5730   0.6048
     0.8996   1.3703   1.4142   2.2026

          k =-0.1667 0.0722 0.0000 ( 31908 PWs)   bands (ev):

   -21.3418 -21.3383 -20.6155 -20.6132 -19.5431 -19.1885 -19.1758 -17.5875
   -17.5834 -17.1576 -17.1563 -16.9975 -16.9882 -16.8142 -16.8120 -15.2449
   -15.2439 -14.3110 -14.3039 -13.5699 -13.5682 -13.2539 -13.2372 -11.5178
   -11.5143 -11.2803 -10.8234 -10.8228 -10.6153 -10.6010  -9.7534  -9.7360
    -9.6911  -9.3846  -9.3641  -9.3164  -9.2592  -9.2524  -9.2162  -9.2130
    -8.7870  -8.7694  -8.4522  -8.4200  -7.9074  -7.9034  -7.6467  -7.6330
    -7.1946  -6.9198  -6.7917  -6.7140  -6.6541  -6.6414  -6.6391  -5.2142
    -5.0602  -4.8865  -4.8689  -4.7747  -4.7152  -4.3644  -4.3541  -0.5141
    -0.5125  -0.2842  -0.2396   0.2187   0.2438   0.5427   0.5574   0.6651
     1.0041   1.4995   1.5250   1.6892

          k =-0.1667-0.1443 0.0000 ( 31784 PWs)   bands (ev):

   -21.0734 -21.0676 -21.0637 -21.0631 -19.5386 -18.2362 -18.2324 -18.2312
   -18.2221 -17.3522 -17.3517 -17.3464 -17.3363 -16.8190 -16.8181 -14.4602
   -14.4575 -14.4512 -14.4484 -13.2576 -13.2368 -12.9206 -12.9175 -12.9140
   -12.9112 -11.2736 -10.3045 -10.2962 -10.2916 -10.2805  -9.9333  -9.9329
    -9.9141  -9.9136  -9.7046  -9.3126  -9.1324  -9.1150  -9.0756  -8.9897
    -8.6563  -8.6307  -8.3874  -8.3815  -8.3768  -8.3720  -7.0966  -7.0619
    -7.0601  -7.0510  -7.0497  -6.8428  -6.7397  -5.8753  -5.7767  -5.7377
    -5.6984  -5.1404  -4.9568  -4.9489  -4.9235  -4.4240  -4.3624  -0.1911
    -0.1614  -0.1147  -0.1035   0.4435   0.5557   0.7809   1.0732   1.0828
     1.0941   1.1191   1.1617   1.3705

     the Fermi energy is    -2.3745 ev

!    total energy              =    -351.26005156 Ry
     Harris-Foulkes estimate   =    -351.26005167 Ry
     estimated scf accuracy    <       0.00000021 Ry

     The total energy is the sum of the following terms:

     one-electron contribution =   -4809.90902245 Ry
     hartree contribution      =    2424.91219113 Ry
     xc contribution           =    -112.32105742 Ry
     ewald contribution        =    2146.06065688 Ry
     smearing contrib. (-TS)   =      -0.00281971 Ry

     convergence has been achieved in   5 iterations

     Forces acting on atoms (cartesian axes, Ry/au):

     atom    1 type  1   force =    -0.00034357   -0.00097242    0.00003559
     atom    2 type  1   force =     0.00000000    0.00200053    0.00200645
     atom    3 type  1   force =     0.00000000   -0.00142172   -0.00110386
     atom    4 type  1   force =     0.00058443    0.00095631   -0.00371384
     atom    5 type  1   force =    -0.00031164   -0.00043516   -0.00280748
     atom    6 type  1   force =     0.00000000   -0.00091356    0.00062578
     atom    7 type  1   force =     0.00000000   -0.00064974    0.00204749
     atom    8 type  1   force =     0.00067165    0.00022859    0.00089947
     atom    9 type  1   force =     0.00000000   -0.00107037   -0.00330161
     atom   10 type  1   force =    -0.00016493    0.00097377   -0.00413786
     atom   11 type  1   force =    -0.00076545   -0.00059668   -0.00726560
     atom   12 type  1   force =     0.00000000    0.00051173   -0.00884828
     atom   13 type  1   force =     0.00000000   -0.00048342   -0.00726097
     atom   14 type  1   force =    -0.00024093    0.00015862   -0.00397979
     atom   15 type  1   force =     0.00008221    0.00070896   -0.00030872
     atom   16 type  1   force =     0.00000000    0.00042723    0.00149875
     atom   17 type  1   force =     0.00034357   -0.00097242    0.00003559
     atom   18 type  1   force =     0.00016493    0.00097377   -0.00413786
     atom   19 type  1   force =     0.00076545   -0.00059668   -0.00726560
     atom   20 type  1   force =    -0.00058443    0.00095631   -0.00371384
     atom   21 type  1   force =     0.00031164   -0.00043516   -0.00280748
     atom   22 type  1   force =     0.00024093    0.00015862   -0.00397979
     atom   23 type  1   force =    -0.00008221    0.00070896   -0.00030872
     atom   24 type  1   force =    -0.00067165    0.00022859    0.00089947
     atom   25 type  1   force =     0.00000000    0.00840223    0.00870797
     atom   26 type  1   force =     0.00449711    0.00235171    0.00884167
     atom   27 type  1   force =     0.00693512   -0.00383114    0.00871758
     atom   28 type  1   force =     0.00000000   -0.00566636    0.00883777
     atom   29 type  1   force =    -0.00693512   -0.00383114    0.00871758
     atom   30 type  1   force =    -0.00449711    0.00235171    0.00884167
     atom   31 type  2   force =     0.00000000   -0.00363855    0.00092950
     atom   32 type  2   force =    -0.00129423   -0.00085984    0.00045605
     atom   33 type  2   force =    -0.00259863    0.00155389    0.00098298
     atom   34 type  2   force =     0.00000000    0.00202879    0.00042093
     atom   35 type  2   force =     0.00259863    0.00155389    0.00098298
     atom   36 type  2   force =     0.00129423   -0.00085984    0.00045605

     Total force =     0.034307     Total SCF correction =     0.001159

     number of scf cycles    =   3
     number of bfgs steps    =   2

     energy   old            =    -351.2587960327 Ry
     energy   new            =    -351.2600515596 Ry

     CASE: energy  _new < energy  _old

     new trust radius        =       0.0205555533 bohr
     new conv_thr            =       0.0000008848 Ry


ATOMIC_POSITIONS (angstrom)
C        1.230872393   0.001104933   0.000559052
C        0.000000000   0.710484623   0.003876177
C        0.000000000   2.132280630  -0.000249742
C        1.230641959   2.840229031  -0.010166095
C        1.231029098   4.260241881  -0.005318496
C        0.000000000   4.969140949   0.001175283
C        0.000000000   6.391031787   0.002638163
C        1.230088355   7.101148779   0.001841012
C        3.690000000   0.001486878  -0.005955709
C        2.460806386   0.711153252  -0.010868842
C        2.461207825   2.131186371  -0.018401767
C        3.690000000   2.840264402  -0.021972994
C        3.690000000   4.260130894  -0.018697576
C        2.461097732   4.969844017  -0.010723185
C        2.460710049   6.390169340   0.000549207
C        3.690000000   7.102288972   0.002729691
C        6.149127607   0.001104933   0.000559052
C        4.919193614   0.711153252  -0.010868842
C        4.918792175   2.131186371  -0.018401767
C        6.149358041   2.840229031  -0.010166095
C        6.148970902   4.260241881  -0.005318496
C        4.918902268   4.969844017  -0.010723185
C        4.919289951   6.390169340   0.000549207
C        6.149911645   7.101148779   0.001841012
C        3.690000000   1.443390394   3.023994021
C        2.482490802   2.143157843   3.021689019
C        2.480978517   3.538782412   3.024055899
C        3.690000000   4.235909344   3.021652630
C        4.899021483   3.538782412   3.024055899
C        4.897509198   2.143157843   3.021689019
H        3.690000000   0.361076953   3.001234349
H        1.543380909   1.600894290   3.000172086
H        1.543298820   4.080232695   3.001348569
H        3.690000000   5.319884111   3.000102791
H        5.836701180   4.080232695   3.001348569
H        5.836619091   1.600894290   3.000172086



     Writing output data file batch_graph+benzene.save/
     NEW-OLD atomic charge density approx. for the potential

     negative rho (up, down):  2.088E-04 0.000E+00

     total cpu time spent up to now is      620.0 secs

     Self-consistent Calculation

     iteration #  1     ecut=    32.00 Ry     beta= 0.50
     Davidson diagonalization with overlap
     ethr =  1.00E-06,  avg # of iterations =  4.0

     negative rho (up, down):  2.085E-04 0.000E+00

     total cpu time spent up to now is      665.0 secs

     total energy              =    -351.26162463 Ry
     Harris-Foulkes estimate   =    -351.26196477 Ry
     estimated scf accuracy    <       0.00076197 Ry

     iteration #  2     ecut=    32.00 Ry     beta= 0.50
     Davidson diagonalization with overlap
     ethr =  6.05E-07,  avg # of iterations =  2.0

     negative rho (up, down):  2.091E-04 0.000E+00

     total cpu time spent up to now is      692.3 secs

     total energy              =    -351.26175675 Ry
     Harris-Foulkes estimate   =    -351.26177936 Ry
     estimated scf accuracy    <       0.00009264 Ry

     iteration #  3     ecut=    32.00 Ry     beta= 0.50
     Davidson diagonalization with overlap
     ethr =  7.35E-08,  avg # of iterations =  2.0

     negative rho (up, down):  2.087E-04 0.000E+00

     total cpu time spent up to now is      719.3 secs

     total energy              =    -351.26177107 Ry
     Harris-Foulkes estimate   =    -351.26177382 Ry
     estimated scf accuracy    <       0.00002073 Ry

     iteration #  4     ecut=    32.00 Ry     beta= 0.50
     Davidson diagonalization with overlap
     ethr =  1.65E-08,  avg # of iterations =  2.0

     negative rho (up, down):  2.098E-04 0.000E+00

     total cpu time spent up to now is      745.9 secs

     total energy              =    -351.26177414 Ry
     Harris-Foulkes estimate   =    -351.26177522 Ry
     estimated scf accuracy    <       0.00000547 Ry

     iteration #  5     ecut=    32.00 Ry     beta= 0.50
     Davidson diagonalization with overlap
     ethr =  4.34E-09,  avg # of iterations =  2.1

     negative rho (up, down):  2.082E-04 0.000E+00

     total cpu time spent up to now is      771.5 secs

     End of self-consistent calculation

          k = 0.0000 0.0000 0.0000 ( 31971 PWs)   bands (ev):

   -21.9246 -20.4707 -20.4672 -19.9972 -19.9874 -19.5452 -18.5828 -18.5799
   -18.5756 -18.5755 -16.8349 -16.8182 -16.7349 -15.6453 -15.0754 -15.0704
   -15.0701 -15.0668 -13.2735 -13.2470 -13.0973 -13.0956 -13.0941 -13.0895
   -12.9529 -12.9513 -11.3643 -10.2853 -10.2804 -10.0159  -9.9293  -9.9270
    -9.7547  -9.3115  -9.0971  -9.0969  -9.0917  -9.0898  -8.9557  -8.9125
    -8.9121  -8.7802  -8.6773  -8.3855  -8.2243  -7.8308  -7.7131  -7.6036
    -7.6017  -7.0587  -6.7910  -6.7238  -6.2164  -6.2031  -6.1364  -6.0899
    -5.6335  -5.6215  -4.8049  -4.4864  -4.4763  -2.3872  -2.3807  -2.3770
    -2.3739  -0.6620  -0.0392   0.4135   0.5300   0.6936   1.3433   1.3497
     1.3664   1.3759   1.5740   1.9850

          k = 0.0000 0.0722 0.0000 ( 31929 PWs)   bands (ev):

   -21.8328 -21.1022 -19.9092 -19.8978 -19.6717 -19.5391 -19.1880 -19.1848
   -17.8146 -17.8119 -17.5990 -16.8263 -16.8182 -15.9433 -15.9418 -14.6562
   -14.5423 -14.5420 -13.6962 -13.6953 -13.2617 -13.2418 -12.4340 -12.4321
   -12.3716 -12.3691 -11.5620 -11.3550 -10.7439 -10.7398 -10.1363 -10.1354
    -9.9155  -9.7631  -9.3092  -9.1156  -8.8652  -8.6937  -8.6757  -8.6021
    -8.5982  -8.4294  -8.4280  -8.3522  -8.1667  -7.7812  -7.6174  -7.4220
    -7.0968  -6.9575  -6.8668  -6.7793  -6.6887  -6.6820  -5.9866  -5.8245
    -5.4049  -5.3741  -5.2743  -4.4840  -4.4836  -3.3886  -3.3790  -1.4096
    -1.3914  -0.0212   0.1035   0.3170   0.4520   0.5342   0.5988   0.8235
     1.3077   1.7887   1.8589   2.2077

          k = 0.0000-0.1443 0.0000 ( 31940 PWs)   bands (ev):

   -21.5611 -21.5551 -19.6729 -19.6381 -19.6337 -19.6267 -19.5089 -18.6978
   -18.6886 -16.9424 -16.9271 -16.9147 -16.9135 -16.8029 -16.8028 -14.1642
   -14.1627 -14.1588 -14.1587 -13.2637 -13.2415 -13.1648 -13.1571 -11.5600
   -11.5573 -11.5535 -11.5520 -11.3490 -11.3338 -11.3331 -11.3314 -11.3310
    -9.7716  -9.6192  -9.6038  -9.3086  -8.7277  -8.6755  -8.6003  -8.5915
    -8.2952  -8.2933  -8.2860  -8.2831  -7.6232  -7.3399  -7.3203  -7.3201
    -6.9865  -6.9610  -6.9216  -6.7410  -6.7047  -6.3450  -6.3236  -6.3132
    -6.2481  -4.7353  -4.6691  -4.4038  -4.3906  -4.2452  -4.1902  -0.5205
    -0.4574  -0.4574  -0.4453   0.3532   0.5009   0.5230   0.8719   1.1953
     1.2535   1.4190   1.4550   2.0607

          k = 0.0833 0.0000 0.0000 ( 31951 PWs)   bands (ev):

   -21.8023 -20.8303 -20.3512 -20.3474 -19.5621 -19.3963 -19.3813 -18.9266
   -17.5714 -17.5711 -16.8302 -16.8256 -16.6337 -16.2849 -15.8002 -15.5445
   -14.8945 -14.6369 -14.6355 -14.1438 -13.2557 -13.2505 -12.4178 -12.1771
   -11.7246 -11.5031 -11.5026 -11.3296 -10.1913  -9.9551  -9.9525  -9.8800
    -9.7199  -9.4649  -9.3144  -9.1698  -9.1685  -8.9938  -8.9923  -8.8741
    -8.7631  -8.7488  -8.6036  -8.2271  -8.1052  -8.0587  -8.0565  -7.6728
    -7.2933  -7.0856  -6.9041  -6.7655  -6.7312  -6.4583  -6.1067  -5.8820
    -5.2828  -5.2553  -4.6908  -4.5106  -4.4389  -3.6577  -3.3985  -1.4257
    -1.0984  -0.7083  -0.0423  -0.0283   0.1650   0.4786   0.5285   0.8680
     1.5556   1.7380   2.1594   2.2119

          k = 0.0833 0.0722 0.0000 ( 31951 PWs)   bands (ev):

   -21.7106 -20.9812 -20.7398 -20.0215 -19.5813 -19.5095 -18.8393 -18.6083
   -18.1506 -17.4890 -16.8991 -16.8263 -16.8166 -16.6162 -16.2489 -15.1533
   -14.6639 -14.5654 -14.0492 -13.9282 -13.2522 -13.2500 -12.2348 -12.2211
   -12.0023 -11.7884 -11.5259 -11.3226 -10.7395 -10.3545  -9.7801  -9.7434
    -9.7229  -9.6977  -9.3734  -9.3113  -9.1671  -8.9945  -8.8235  -8.7816
    -8.6795  -8.6523  -8.5197  -8.4862  -8.1693  -7.8174  -7.5323  -7.3521
    -7.3395  -7.0007  -6.7910  -6.7565  -6.4427  -6.3927  -6.1502  -6.0575
    -5.7682  -5.1708  -4.7587  -4.5066  -4.4664  -4.0013  -3.7748  -1.0691
    -0.7501  -0.5665  -0.0669   0.2853   0.4653   0.5128   0.6842   0.9968
     1.4473   1.6166   1.6738   1.9190

          k = 0.0833-0.1443 0.0000 ( 31876 PWs)   bands (ev):

   -21.4393 -21.4333 -20.4713 -20.4668 -19.5496 -18.5838 -18.5827 -18.5763
   -18.5712 -17.6763 -17.6687 -16.8274 -16.8253 -16.3222 -16.3167 -15.2658
   -15.2624 -13.2561 -13.2534 -13.0979 -13.0938 -13.0913 -13.0880 -13.0183
   -13.0153 -11.4039 -11.3991 -11.3143 -10.7139 -10.7112  -9.9350  -9.9304
    -9.7364  -9.4900  -9.4611  -9.3134  -9.1009  -9.0960  -9.0945  -9.0893
    -8.7745  -8.7233  -8.3105  -8.2647  -7.6032  -7.5917  -7.2835  -7.2664
    -7.1336  -6.7753  -6.7656  -6.6197  -6.6157  -6.2150  -6.1658  -6.1577
    -6.1167  -5.2045  -5.1369  -4.5499  -4.4444  -4.1364  -4.0833  -0.9246
    -0.9071   0.3215   0.4194   0.4718   0.5219   0.6157   1.0534   1.3410
     1.3580   1.3624   1.3652   1.3929

          k =-0.1667 0.0000 0.0000 ( 31854 PWs)   bands (ev):

   -21.4369 -21.4358 -19.9994 -19.9915 -19.9894 -19.9884 -19.5357 -17.6744
   -17.6708 -16.8420 -16.8326 -16.7361 -16.7304 -16.3246 -16.3188 -15.6509
   -15.6491 -15.2620 -15.2562 -13.2617 -13.2451 -13.0217 -13.0199 -11.3980
   -11.3964 -11.2951 -10.7233 -10.7087 -10.2804 -10.2785 -10.2762 -10.2744
    -9.6859  -9.4824  -9.4721  -9.3187  -8.9530  -8.9510  -8.9253  -8.9213
    -8.9161  -8.9128  -8.7461  -8.7209  -7.9333  -7.7351  -7.7199  -7.7165
    -7.2912  -7.2731  -6.9538  -6.8075  -6.7666  -6.6119  -6.6078  -5.2513
    -5.1046  -4.8035  -4.7834  -4.5652  -4.4211  -4.1397  -4.0932  -0.9347
    -0.8853  -0.6725  -0.6645   0.3439   0.3832   0.5460   0.5712   0.6015
     0.9011   1.3671   1.4118   2.2031

          k =-0.1667 0.0722 0.0000 ( 31908 PWs)   bands (ev):

   -21.3456 -21.3446 -20.6194 -20.6193 -19.5519 -19.1923 -19.1830 -17.5924
   -17.5888 -17.1625 -17.1612 -17.0019 -16.9936 -16.8202 -16.8181 -15.2498
   -15.2489 -14.3157 -14.3114 -13.5745 -13.5730 -13.2576 -13.2410 -11.5230
   -11.5216 -11.2881 -10.8296 -10.8289 -10.6201 -10.6055  -9.7576  -9.7402
    -9.6918  -9.3852  -9.3681  -9.3203  -9.2653  -9.2576  -9.2221  -9.2192
    -8.7903  -8.7716  -8.4536  -8.4232  -7.9137  -7.9080  -7.6513  -7.6377
    -7.2038  -6.9205  -6.7969  -6.7149  -6.6627  -6.6472  -6.6468  -5.2121
    -5.0650  -4.8863  -4.8716  -4.7804  -4.7188  -4.3789  -4.3675  -0.5185
    -0.5176  -0.2885  -0.2459   0.2180   0.2413   0.5385   0.5575   0.6661
     1.0057   1.4958   1.5224   1.6934

          k =-0.1667-0.1443 0.0000 ( 31784 PWs)   bands (ev):

   -21.0760 -21.0736 -21.0696 -21.0687 -19.5479 -18.2410 -18.2392 -18.2340
   -18.2288 -17.3568 -17.3559 -17.3519 -17.3424 -16.8245 -16.8237 -14.4651
   -14.4633 -14.4553 -14.4535 -13.2609 -13.2404 -12.9249 -12.9231 -12.9215
   -12.9190 -11.2814 -10.3076 -10.3026 -10.2946 -10.2863  -9.9402  -9.9384
    -9.9200  -9.9192  -9.7046  -9.3168  -9.1293  -9.1191  -9.0809  -8.9929
    -8.6580  -8.6339  -8.3920  -8.3877  -8.3807  -8.3785  -7.1132  -7.0691
    -7.0649  -7.0571  -7.0555  -6.8408  -6.7410  -5.8742  -5.7777  -5.7425
    -5.7059  -5.1380  -4.9624  -4.9529  -4.9288  -4.4363  -4.3773  -0.1929
    -0.1665  -0.1173  -0.1084   0.4443   0.5589   0.7812   1.0673   1.0745
     1.0900   1.1101   1.1631   1.3739

     the Fermi energy is    -2.3797 ev

!    total energy              =    -351.26177501 Ry
     Harris-Foulkes estimate   =    -351.26177542 Ry
     estimated scf accuracy    <       0.00000084 Ry

     The total energy is the sum of the following terms:

     one-electron contribution =   -4804.68008479 Ry
     hartree contribution      =    2422.27678781 Ry
     xc contribution           =    -112.32557778 Ry
     ewald contribution        =    2143.46991978 Ry
     smearing contrib. (-TS)   =      -0.00282002 Ry

     convergence has been achieved in   5 iterations

     Forces acting on atoms (cartesian axes, Ry/au):

     atom    1 type  1   force =    -0.00075246   -0.00085952   -0.00002039
     atom    2 type  1   force =     0.00000000    0.00082380    0.00080666
     atom    3 type  1   force =     0.00000000   -0.00042046   -0.00214180
     atom    4 type  1   force =     0.00022180    0.00059835   -0.00314316
     atom    5 type  1   force =    -0.00069488   -0.00022563   -0.00299720
     atom    6 type  1   force =     0.00000000    0.00041706    0.00021746
     atom    7 type  1   force =     0.00000000   -0.00098922    0.00194369
     atom    8 type  1   force =     0.00058988    0.00019600    0.00112673
     atom    9 type  1   force =     0.00000000   -0.00055841   -0.00287940
     atom   10 type  1   force =    -0.00027421    0.00005441   -0.00342625
     atom   11 type  1   force =    -0.00111304   -0.00082198   -0.00623001
     atom   12 type  1   force =     0.00000000    0.00081079   -0.00810727
     atom   13 type  1   force =     0.00000000   -0.00031605   -0.00629488
     atom   14 type  1   force =    -0.00042657    0.00062980   -0.00316382
     atom   15 type  1   force =    -0.00041971    0.00106086   -0.00063279
     atom   16 type  1   force =     0.00000000   -0.00072802    0.00040179
     atom   17 type  1   force =     0.00075246   -0.00085952   -0.00002039
     atom   18 type  1   force =     0.00027421    0.00005441   -0.00342625
     atom   19 type  1   force =     0.00111304   -0.00082198   -0.00623001
     atom   20 type  1   force =    -0.00022180    0.00059835   -0.00314316
     atom   21 type  1   force =     0.00069488   -0.00022563   -0.00299720
     atom   22 type  1   force =     0.00042657    0.00062980   -0.00316382
     atom   23 type  1   force =     0.00041971    0.00106086   -0.00063279
     atom   24 type  1   force =    -0.00058988    0.00019600    0.00112673
     atom   25 type  1   force =     0.00000000    0.00816440    0.00713284
     atom   26 type  1   force =     0.00409053    0.00200641    0.00798992
     atom   27 type  1   force =     0.00648900   -0.00342676    0.00712984
     atom   28 type  1   force =     0.00000000   -0.00544536    0.00799891
     atom   29 type  1   force =    -0.00648900   -0.00342676    0.00712984
     atom   30 type  1   force =    -0.00409053    0.00200641    0.00798992
     atom   31 type  2   force =     0.00000000   -0.00462581    0.00148367
     atom   32 type  2   force =    -0.00244718   -0.00146775    0.00104861
     atom   33 type  2   force =    -0.00348606    0.00201405    0.00153334
     atom   34 type  2   force =     0.00000000    0.00335080    0.00100865
     atom   35 type  2   force =     0.00348606    0.00201405    0.00153334
     atom   36 type  2   force =     0.00244718   -0.00146775    0.00104861

     Total force =     0.031351     Total SCF correction =     0.002500

     number of scf cycles    =   4
     number of bfgs steps    =   3

     energy   old            =    -351.2600515596 Ry
     energy   new            =    -351.2617750052 Ry

     CASE: energy  _new < energy  _old

     new trust radius        =       0.0308333300 bohr
     new conv_thr            =       0.0000008164 Ry


ATOMIC_POSITIONS (angstrom)
C        1.230875053   0.001536231   0.000826439
C        0.000000000   0.710820066   0.005794615
C        0.000000000   2.133099954  -0.001996594
C        1.230849363   2.840086634  -0.017179513
C        1.231191640   4.259975331  -0.009912849
C        0.000000000   4.969010256   0.001733690
C        0.000000000   6.390175029   0.005119767
C        1.230271072   7.101040253   0.003513536
C        3.690000000   0.001811158  -0.010265587
C        2.460951064   0.711184904  -0.018381215
C        2.461242914   2.131325928  -0.031374118
C        3.690000000   2.840447858  -0.037769610
C        3.690000000   4.259823059  -0.031563929
C        2.461350055   4.969786801  -0.017968562
C        2.460782801   6.390183621   0.000372310
C        3.690000000   7.101993375   0.003928806
C        6.149124947   0.001536231   0.000826439
C        4.919048936   0.711184904  -0.018381215
C        4.918757086   2.131325928  -0.031374118
C        6.149150637   2.840086634  -0.017179513
C        6.148808360   4.259975331  -0.009912849
C        4.918649945   4.969786801  -0.017968562
C        4.919217199   6.390183621   0.000372310
C        6.149728928   7.101040253   0.003513536
C        3.690000000   1.444514732   3.040239983
C        2.483587563   2.143632459   3.037422642
C        2.482043245   3.538306638   3.040330465
C        3.690000000   4.234720208   3.037376768
C        4.897956755   3.538306638   3.040330465
C        4.896412437   2.143632459   3.037422642
H        3.690000000   0.362516688   3.002898278
H        1.545246591   1.601773528   3.001043748
H        1.544913470   4.079475853   3.003102555
H        3.690000000   5.318110878   3.000912934
H        5.835086530   4.079475853   3.003102555
H        5.834753409   1.601773528   3.001043748



     Writing output data file batch_graph+benzene.save/
     NEW-OLD atomic charge density approx. for the potential

     negative rho (up, down):  2.120E-04 0.000E+00

     total cpu time spent up to now is      785.7 secs

     Self-consistent Calculation

     iteration #  1     ecut=    32.00 Ry     beta= 0.50
     Davidson diagonalization with overlap
     ethr =  1.00E-06,  avg # of iterations =  4.0

     negative rho (up, down):  2.111E-04 0.000E+00

     total cpu time spent up to now is      837.0 secs

     total energy              =    -351.26362509 Ry
     Harris-Foulkes estimate   =    -351.26442925 Ry
     estimated scf accuracy    <       0.00179643 Ry

     iteration #  2     ecut=    32.00 Ry     beta= 0.50
     Davidson diagonalization with overlap
     ethr =  1.43E-06,  avg # of iterations =  4.1

     negative rho (up, down):  2.127E-04 0.000E+00

     total cpu time spent up to now is      865.9 secs

     total energy              =    -351.26393777 Ry
     Harris-Foulkes estimate   =    -351.26399074 Ry
     estimated scf accuracy    <       0.00021719 Ry

     iteration #  3     ecut=    32.00 Ry     beta= 0.50
     Davidson diagonalization with overlap
     ethr =  1.72E-07,  avg # of iterations =  2.0

     negative rho (up, down):  2.132E-04 0.000E+00

     total cpu time spent up to now is      892.8 secs

     total energy              =    -351.26397249 Ry
     Harris-Foulkes estimate   =    -351.26397530 Ry
     estimated scf accuracy    <       0.00004325 Ry

     iteration #  4     ecut=    32.00 Ry     beta= 0.50
     Davidson diagonalization with overlap
     ethr =  3.43E-08,  avg # of iterations =  2.0

     negative rho (up, down):  2.157E-04 0.000E+00

     total cpu time spent up to now is      919.3 secs

     total energy              =    -351.26397849 Ry
     Harris-Foulkes estimate   =    -351.26397912 Ry
     estimated scf accuracy    <       0.00000748 Ry

     iteration #  5     ecut=    32.00 Ry     beta= 0.50
     Davidson diagonalization with overlap
     ethr =  5.94E-09,  avg # of iterations =  2.0

     negative rho (up, down):  2.123E-04 0.000E+00

     total cpu time spent up to now is      945.5 secs

     total energy              =    -351.26397986 Ry
     Harris-Foulkes estimate   =    -351.26398028 Ry
     estimated scf accuracy    <       0.00000169 Ry

     iteration #  6     ecut=    32.00 Ry     beta= 0.50
     Davidson diagonalization with overlap
     ethr =  1.34E-09,  avg # of iterations =  2.0

     negative rho (up, down):  2.106E-04 0.000E+00

     total cpu time spent up to now is      970.7 secs

     End of self-consistent calculation

          k = 0.0000 0.0000 0.0000 ( 31971 PWs)   bands (ev):

   -21.9322 -20.4781 -20.4749 -20.0044 -19.9951 -19.5585 -18.5913 -18.5877
   -18.5835 -18.5833 -16.8399 -16.8225 -16.7441 -15.6527 -15.0841 -15.0788
   -15.0775 -15.0753 -13.2726 -13.2487 -13.1058 -13.1045 -13.1024 -13.0981
   -12.9612 -12.9598 -11.3692 -10.2942 -10.2901 -10.0207  -9.9353  -9.9352
    -9.7462  -9.3172  -9.1049  -9.1037  -9.1007  -9.0989  -8.9647  -8.9197
    -8.9197  -8.7825  -8.6782  -8.3841  -8.2285  -7.8342  -7.7178  -7.6120
    -7.6115  -7.0830  -6.7867  -6.7224  -6.2186  -6.2070  -6.1424  -6.1041
    -5.6433  -5.6288  -4.8089  -4.4974  -4.4906  -2.3953  -2.3886  -2.3849
    -2.3814  -0.6703  -0.0361   0.4194   0.5331   0.6878   1.3352   1.3414
     1.3556   1.3665   1.5748   1.9885

          k = 0.0000 0.0722 0.0000 ( 31929 PWs)   bands (ev):

   -21.8405 -21.1098 -19.9162 -19.9056 -19.6787 -19.5525 -19.1957 -19.1937
   -17.8227 -17.8196 -17.6069 -16.8323 -16.8226 -15.9518 -15.9497 -14.6639
   -14.5505 -14.5504 -13.7044 -13.7037 -13.2616 -13.2441 -12.4421 -12.4403
   -12.3799 -12.3779 -11.5698 -11.3601 -10.7525 -10.7491 -10.1448 -10.1432
    -9.9192  -9.7543  -9.3152  -9.1189  -8.8741  -8.6937  -8.6764  -8.6097
    -8.6066  -8.4372  -8.4367  -8.3600  -8.1761  -7.7796  -7.6215  -7.4283
    -7.1104  -6.9670  -6.8712  -6.7762  -6.7031  -6.6867  -5.9939  -5.8345
    -5.4069  -5.3774  -5.2821  -4.4977  -4.4951  -3.3967  -3.3888  -1.4166
    -1.3994  -0.0277   0.1067   0.3206   0.4430   0.5376   0.5888   0.8175
     1.3117   1.7868   1.8549   2.2059

          k = 0.0000-0.1443 0.0000 ( 31940 PWs)   bands (ev):

   -21.5673 -21.5641 -19.6791 -19.6440 -19.6399 -19.6360 -19.5250 -18.7057
   -18.6966 -16.9462 -16.9337 -16.9233 -16.9214 -16.8117 -16.8095 -14.1706
   -14.1703 -14.1690 -14.1676 -13.2630 -13.2438 -13.1743 -13.1638 -11.5691
   -11.5670 -11.5611 -11.5598 -11.3536 -11.3430 -11.3423 -11.3388 -11.3386
    -9.7629  -9.6206  -9.6094  -9.3146  -8.7279  -8.6757  -8.6072  -8.6033
    -8.3029  -8.3015  -8.2936  -8.2921  -7.6211  -7.3425  -7.3263  -7.3256
    -6.9935  -6.9724  -6.9423  -6.7405  -6.7023  -6.3471  -6.3334  -6.3229
    -6.2614  -4.7328  -4.6677  -4.4107  -4.4004  -4.2622  -4.2111  -0.5249
    -0.4643  -0.4636  -0.4555   0.3553   0.5010   0.5264   0.8734   1.1895
     1.2529   1.4104   1.4470   2.0589

          k = 0.0833 0.0000 0.0000 ( 31951 PWs)   bands (ev):

   -21.8099 -20.8379 -20.3586 -20.3551 -19.5729 -19.4041 -19.3914 -18.9347
   -17.5796 -17.5785 -16.8355 -16.8299 -16.6427 -16.2931 -15.8089 -15.5518
   -14.9018 -14.6451 -14.6440 -14.1525 -13.2554 -13.2528 -12.4255 -12.1858
   -11.7336 -11.5114 -11.5109 -11.3351 -10.1988  -9.9633  -9.9607  -9.8826
    -9.7115  -9.4738  -9.3202  -9.1778  -9.1773  -9.0015  -9.0009  -8.8763
    -8.7714  -8.7518  -8.6034  -8.2284  -8.1099  -8.0673  -8.0666  -7.6804
    -7.3012  -7.0907  -6.9165  -6.7700  -6.7293  -6.4677  -6.1167  -5.8893
    -5.2858  -5.2599  -4.6941  -4.5211  -4.4539  -3.6672  -3.4078  -1.4326
    -1.1060  -0.7162  -0.0498  -0.0364   0.1674   0.4818   0.5291   0.8624
     1.5580   1.7394   2.1516   2.2065

          k = 0.0833 0.0722 0.0000 ( 31951 PWs)   bands (ev):

   -21.7183 -20.9888 -20.7474 -20.0289 -19.5895 -19.5221 -18.8473 -18.6162
   -18.1585 -17.4968 -16.9049 -16.8317 -16.8228 -16.6250 -16.2571 -15.1617
   -14.6724 -14.5730 -14.0569 -13.9365 -13.2525 -13.2518 -12.2435 -12.2293
   -12.0110 -11.7963 -11.5337 -11.3279 -10.7481 -10.3629  -9.7842  -9.7472
    -9.7175  -9.7059  -9.3821  -9.3176  -9.1762  -8.9978  -8.8244  -8.7895
    -8.6801  -8.6615  -8.5223  -8.4940  -8.1776  -7.8201  -7.5401  -7.3615
    -7.3445  -7.0232  -6.7876  -6.7549  -6.4522  -6.3990  -6.1565  -6.0658
    -5.7740  -5.1752  -4.7594  -4.5176  -4.4796  -4.0138  -3.7845  -1.0770
    -0.7566  -0.5751  -0.0733   0.2880   0.4682   0.5150   0.6748   0.9909
     1.4510   1.6188   1.6665   1.9118

          k = 0.0833-0.1443 0.0000 ( 31876 PWs)   bands (ev):

   -21.4455 -21.4424 -20.4776 -20.4756 -19.5623 -18.5914 -18.5895 -18.5850
   -18.5801 -17.6843 -17.6763 -16.8322 -16.8306 -16.3299 -16.3252 -15.2752
   -15.2701 -13.2577 -13.2527 -13.1076 -13.1032 -13.0991 -13.0947 -13.0254
   -13.0243 -11.4105 -11.4095 -11.3198 -10.7219 -10.7192  -9.9442  -9.9386
    -9.7280  -9.4911  -9.4669  -9.3192  -9.1078  -9.1062  -9.1031  -9.0975
    -8.7750  -8.7242  -8.3110  -8.2700  -7.6115  -7.5997  -7.2918  -7.2743
    -7.1548  -6.7728  -6.7615  -6.6309  -6.6233  -6.2155  -6.1712  -6.1644
    -6.1294  -5.2044  -5.1442  -4.5561  -4.4611  -4.1453  -4.0965  -0.9337
    -0.9150   0.3259   0.4179   0.4718   0.5239   0.6060   1.0543   1.3332
     1.3506   1.3530   1.3581   1.3851

          k =-0.1667 0.0000 0.0000 ( 31854 PWs)   bands (ev):

   -21.4441 -21.4438 -20.0064 -19.9985 -19.9969 -19.9966 -19.5500 -17.6821
   -17.6787 -16.8453 -16.8376 -16.7441 -16.7396 -16.3322 -16.3286 -15.6596
   -15.6575 -15.2690 -15.2639 -13.2637 -13.2448 -13.0305 -13.0291 -11.4051
   -11.4042 -11.3007 -10.7322 -10.7174 -10.2886 -10.2857 -10.2845 -10.2831
    -9.6773  -9.4829  -9.4782  -9.3246  -8.9603  -8.9594  -8.9339  -8.9309
    -8.9248  -8.9212  -8.7461  -8.7226  -7.9295  -7.7425  -7.7256  -7.7196
    -7.3005  -7.2832  -6.9854  -6.8046  -6.7633  -6.6194  -6.6153  -5.2482
    -5.1117  -4.8080  -4.7864  -4.5727  -4.4375  -4.1493  -4.1068  -0.9404
    -0.8938  -0.6817  -0.6747   0.3457   0.3828   0.5431   0.5667   0.5982
     0.9030   1.3614   1.4076   2.2038

          k =-0.1667 0.0722 0.0000 ( 31908 PWs)   bands (ev):

   -21.3528 -21.3526 -20.6273 -20.6266 -19.5642 -19.1996 -19.1923 -17.6001
   -17.5966 -17.1705 -17.1684 -17.0088 -17.0011 -16.8261 -16.8251 -15.2583
   -15.2573 -14.3229 -14.3195 -13.5829 -13.5815 -13.2602 -13.2408 -11.5304
   -11.5297 -11.2938 -10.8371 -10.8370 -10.6290 -10.6142  -9.7653  -9.7490
    -9.6846  -9.3854  -9.3750  -9.3259  -9.2737  -9.2655  -9.2299  -9.2279
    -8.7916  -8.7720  -8.4537  -8.4289  -7.9224  -7.9165  -7.6604  -7.6471
    -7.2171  -6.9224  -6.8012  -6.7174  -6.6720  -6.6548  -6.6544  -5.2080
    -5.0711  -4.8860  -4.8762  -4.7876  -4.7261  -4.3986  -4.3874  -0.5273
    -0.5262  -0.2936  -0.2531   0.2146   0.2354   0.5318   0.5595   0.6679
     1.0081   1.4890   1.5177   1.6997

          k =-0.1667-0.1443 0.0000 ( 31784 PWs)   bands (ev):

   -21.0813 -21.0808 -21.0784 -21.0779 -19.5607 -18.2487 -18.2480 -18.2409
   -18.2370 -17.3640 -17.3615 -17.3590 -17.3532 -16.8300 -16.8298 -14.4739
   -14.4706 -14.4648 -14.4615 -13.2631 -13.2398 -12.9341 -12.9315 -12.9285
   -12.9258 -11.2870 -10.3149 -10.3132 -10.3023 -10.2962  -9.9476  -9.9454
    -9.9293  -9.9273  -9.6961  -9.3229  -9.1253  -9.1245  -9.0866  -8.9983
    -8.6589  -8.6349  -8.4026  -8.3941  -8.3915  -8.3854  -7.1371  -7.0774
[...]
     atom   31 type  2   force =     0.00000000   -0.00003004   -0.00000926
     atom   32 type  2   force =     0.00004976    0.00001358    0.00000589
     atom   33 type  2   force =     0.00001697    0.00000337   -0.00000717
     atom   34 type  2   force =     0.00000000   -0.00001477   -0.00001494
     atom   35 type  2   force =    -0.00001697    0.00000337   -0.00000717
     atom   36 type  2   force =    -0.00004976    0.00001358    0.00000589

     Total force =     0.000464     Total SCF correction =     0.000211
     SCF correction compared to forces is large: reduce conv_thr to get better values

     number of scf cycles    =  42
     number of bfgs steps    =  41

     energy   old            =    -351.2831320785 Ry
     energy   new            =    -351.2831330891 Ry

     CASE: energy  _new < energy  _old

     new trust radius        =       0.0011539004 bohr
     new conv_thr            =       0.0000000100 Ry


ATOMIC_POSITIONS (angstrom)
C        1.230280847  -0.000063720  -0.172622819
C        0.000000000   0.709697514  -0.174664320
C        0.000000000   2.130324384  -0.186828417
C        1.230348654   2.839781825  -0.193161543
C        1.230300344   4.260043793  -0.187419853
C        0.000000000   4.969746567  -0.177051686
C        0.000000000   6.390620445  -0.168281956
C        1.230090882   7.100737824  -0.168324282
C        3.690000000   0.000180975  -0.178064900
C        2.460432719   0.710188282  -0.184721788
C        2.460527444   2.130235234  -0.197995450
C        3.690000000   2.839918734  -0.203708521
C        3.690000000   4.259902385  -0.199212402
C        2.460596531   4.969775197  -0.188711999
C        2.460373186   6.390325659  -0.174650383
C        3.690000000   7.101030082  -0.172537245
C        6.149719153  -0.000063720  -0.172622819
C        4.919567281   0.710188282  -0.184721788
C        4.919472556   2.130235234  -0.197995450
C        6.149651346   2.839781825  -0.193161543
C        6.149699656   4.260043793  -0.187419853
C        4.919403469   4.969775197  -0.188711999
C        4.919626814   6.390325659  -0.174650383
C        6.149909118   7.100737824  -0.168324282
C        3.690000000   1.445991355   3.371050597
C        2.482082004   2.144050614   3.370683237
C        2.481963738   3.539376337   3.371179376
C        3.690000000   4.237222673   3.370917548
C        4.898036262   3.539376337   3.371179376
C        4.897917996   2.144050614   3.370683237
H        3.690000000   0.359263330   3.361854611
H        1.540834605   1.600565378   3.361026641
H        1.540792511   4.082818342   3.362238826
H        3.690000000   5.324091650   3.361486767
H        5.839207489   4.082818342   3.362238826
H        5.839165395   1.600565378   3.361026641



     Writing output data file batch_graph+benzene.save/
     NEW-OLD atomic charge density approx. for the potential

     negative rho (up, down):  1.967E-04 0.000E+00

     total cpu time spent up to now is     8330.8 secs

     Self-consistent Calculation

     iteration #  1     ecut=    32.00 Ry     beta= 0.50
     Davidson diagonalization with overlap
     ethr =  1.00E-06,  avg # of iterations =  2.0

     Threshold (ethr) on eigenvalues was too large:
     Diagonalizing with lowered threshold

     Davidson diagonalization with overlap
     ethr =  5.48E-10,  avg # of iterations =  3.2

     negative rho (up, down):  1.966E-04 0.000E+00

     total cpu time spent up to now is     8385.7 secs

     total energy              =    -351.28313332 Ry
     Harris-Foulkes estimate   =    -351.28313377 Ry
     estimated scf accuracy    <       0.00000111 Ry

     iteration #  2     ecut=    32.00 Ry     beta= 0.50
     Davidson diagonalization with overlap
     ethr =  8.79E-10,  avg # of iterations =  2.0

     negative rho (up, down):  1.966E-04 0.000E+00

     total cpu time spent up to now is     8413.6 secs

     total energy              =    -351.28313346 Ry
     Harris-Foulkes estimate   =    -351.28313352 Ry
     estimated scf accuracy    <       0.00000020 Ry

     iteration #  3     ecut=    32.00 Ry     beta= 0.50
     Davidson diagonalization with overlap
     ethr =  1.56E-10,  avg # of iterations =  2.8

     negative rho (up, down):  1.966E-04 0.000E+00

     total cpu time spent up to now is     8441.5 secs

     total energy              =    -351.28313350 Ry
     Harris-Foulkes estimate   =    -351.28313353 Ry
     estimated scf accuracy    <       0.00000011 Ry

     iteration #  4     ecut=    32.00 Ry     beta= 0.50
     Davidson diagonalization with overlap
     ethr =  8.72E-11,  avg # of iterations =  2.6

     negative rho (up, down):  1.966E-04 0.000E+00

     total cpu time spent up to now is     8467.0 secs

     End of self-consistent calculation

          k = 0.0000 0.0000 0.0000 ( 31971 PWs)   bands (ev):

   -21.8592 -20.4033 -20.4032 -19.9270 -19.9238 -19.5707 -18.5187 -18.5161
   -18.5149 -18.5129 -16.8344 -16.8265 -16.6790 -15.5868 -15.0122 -15.0092
   -15.0089 -15.0084 -13.2618 -13.2393 -13.0356 -13.0353 -13.0340 -13.0338
   -12.8951 -12.8946 -11.3365 -10.2226 -10.2200  -9.9397  -9.8699  -9.8684
    -9.7270  -9.3317  -9.0396  -9.0390  -9.0329  -9.0319  -8.8955  -8.8555
    -8.8552  -8.7339  -8.6612  -8.2318  -8.1955  -7.6934  -7.6426  -7.5427
    -7.5424  -7.2731  -6.8145  -6.7184  -6.1005  -6.0999  -6.0795  -6.0731
    -5.5727  -5.5675  -4.7099  -4.6109  -4.5985  -2.3126  -2.3095  -2.3076
    -2.3070  -0.6018  -0.1359   0.3642   0.4764   0.6730   1.4165   1.4212
     1.4306   1.4362   1.4632   1.8784

          k = 0.0000 0.0722 0.0000 ( 31929 PWs)   bands (ev):

   -21.7674 -21.0368 -19.8377 -19.8343 -19.6012 -19.5671 -19.1266 -19.1246
   -17.7510 -17.7486 -17.5354 -16.8348 -16.8265 -15.8829 -15.8808 -14.5964
   -14.4810 -14.4807 -13.6344 -13.6332 -13.2583 -13.2392 -12.3742 -12.3732
   -12.3103 -12.3087 -11.5030 -11.3304 -10.6820 -10.6799 -10.0775 -10.0763
    -9.8296  -9.7341  -9.3312  -8.9776  -8.8047  -8.7256  -8.6605  -8.5445
    -8.5438  -8.3721  -8.3718  -8.2956  -8.1066  -7.6114  -7.5428  -7.3558
    -7.2059  -6.8967  -6.7941  -6.7698  -6.7349  -6.7028  -5.9322  -5.7635
    -5.2817  -5.2759  -5.2037  -4.6181  -4.6088  -3.3247  -3.3243  -1.3275
    -1.3235   0.0062   0.0559   0.3661   0.4621   0.5351   0.5474   0.8027
     1.2088   1.6781   1.8318   2.2137

          k = 0.0000-0.1443 0.0000 ( 31940 PWs)   bands (ev):

   -21.4992 -21.4862 -19.5888 -19.5758 -19.5730 -19.5605 -19.5451 -18.6335
   -18.6278 -16.8634 -16.8552 -16.8518 -16.8517 -16.8275 -16.8218 -14.1044
   -14.1031 -14.0956 -14.0951 -13.2554 -13.2393 -13.1044 -13.1041 -11.4985
   -11.4964 -11.4919 -11.4905 -11.3244 -11.2768 -11.2748 -11.2725 -11.2719
    -9.7414  -9.5115  -9.4997  -9.3309  -8.7535  -8.6600  -8.5419  -8.5319
    -8.2352  -8.2351  -8.2301  -8.2292  -7.4590  -7.2534  -7.2508  -7.2408
    -7.1117  -6.9244  -6.9093  -6.7720  -6.7148  -6.2634  -6.2522  -6.2388
    -6.2138  -4.6743  -4.6426  -4.3324  -4.3281  -4.3035  -4.2936  -0.4010
    -0.3895  -0.3863  -0.3815   0.2538   0.4128   0.4686   0.7873   1.1779
     1.2228   1.4894   1.5080   1.9762

          k = 0.0833 0.0000 0.0000 ( 31951 PWs)   bands (ev):

   -21.7369 -20.7648 -20.2836 -20.2834 -19.5708 -19.3326 -19.3314 -18.8644
   -17.5076 -17.5074 -16.8334 -16.8331 -16.5744 -16.2249 -15.7383 -15.4858
   -14.8354 -14.5747 -14.5743 -14.0816 -13.2511 -13.2485 -12.3594 -12.1161
   -11.6629 -11.4422 -11.4419 -11.3070 -10.1333  -9.8969  -9.8954  -9.7920
    -9.6935  -9.4038  -9.3353  -9.1110  -9.1106  -8.9354  -8.9353  -8.7584
    -8.7174  -8.6978  -8.6079  -8.0915  -8.0583  -7.9974  -7.9971  -7.6171
    -7.3311  -6.9806  -6.9403  -6.7985  -6.7660  -6.4246  -6.0457  -5.8278
    -5.1738  -5.1666  -4.6486  -4.6234  -4.5071  -3.6089  -3.3349  -1.3540
    -1.0200  -0.6453   0.0293   0.0446   0.0726   0.4105   0.4503   0.8467
     1.4507   1.6299   2.1159   2.1836

          k = 0.0833 0.0722 0.0000 ( 31951 PWs)   bands (ev):

   -21.6453 -20.9158 -20.6742 -19.9546 -19.5710 -19.4784 -18.7769 -18.5455
   -18.0874 -17.4251 -16.8388 -16.8336 -16.8182 -16.5591 -16.1888 -15.0916
   -14.6018 -14.5055 -13.9893 -13.8663 -13.2486 -13.2479 -12.1736 -12.1613
   -11.9412 -11.7294 -11.4670 -11.3015 -10.6792 -10.2945  -9.7014  -9.6864
    -9.6768  -9.6403  -9.3351  -9.3110  -9.1064  -8.8499  -8.7402  -8.7240
    -8.7009  -8.5920  -8.5151  -8.4297  -8.1118  -7.7073  -7.4757  -7.3281
    -7.2914  -7.1107  -6.7804  -6.7755  -6.3845  -6.3397  -6.0781  -6.0006
    -5.6850  -5.0673  -4.6792  -4.6204  -4.5493  -3.9734  -3.7263  -0.9924
    -0.6719  -0.4964   0.0085   0.1907   0.4246   0.4392   0.7262   0.9747
     1.3562   1.5234   1.7338   1.8868

          k = 0.0833-0.1443 0.0000 ( 31876 PWs)   bands (ev):

   -21.3774 -21.3645 -20.4096 -20.3969 -19.5699 -18.5225 -18.5183 -18.5132
   -18.5089 -17.6116 -17.6061 -16.8348 -16.8332 -16.2621 -16.2565 -15.2025
   -15.2020 -13.2491 -13.2451 -13.0382 -13.0338 -13.0337 -13.0314 -12.9604
   -12.9561 -11.3440 -11.3368 -11.2954 -10.6552 -10.6522  -9.8743  -9.8691
    -9.7088  -9.3665  -9.3581  -9.3343  -9.0422  -9.0375  -9.0334  -9.0317
    -8.7403  -8.7327  -8.2150  -8.2106  -7.5434  -7.5376  -7.3065  -7.2222
    -7.2133  -6.7789  -6.7579  -6.5618  -6.5561  -6.1013  -6.0949  -6.0835
    -6.0752  -5.0782  -5.0535  -4.6283  -4.6059  -4.0784  -4.0656  -0.8496
    -0.8381   0.3918   0.4059   0.4362   0.5125   0.5449   0.9778   1.3514
     1.3866   1.4197   1.4243   1.4330

          k =-0.1667 0.0000 0.0000 ( 31854 PWs)   bands (ev):

   -21.3751 -21.3668 -19.9294 -19.9290 -19.9221 -19.9208 -19.5676 -17.6090
   -17.6088 -16.8402 -16.8327 -16.6779 -16.6778 -16.2642 -16.2566 -15.5889
   -15.5884 -15.2045 -15.1959 -13.2579 -13.2408 -12.9602 -12.9600 -11.3386
   -11.3385 -11.2762 -10.6599 -10.6501 -10.2209 -10.2192 -10.2190 -10.2169
    -9.6596  -9.3672  -9.3578  -9.3394  -8.8944  -8.8943  -8.8610  -8.8597
    -8.8568  -8.8553  -8.7850  -8.6987  -7.7269  -7.6544  -7.6499  -7.6388
    -7.2332  -7.2256  -7.2158  -6.8354  -6.7797  -6.5587  -6.5520  -5.0866
    -5.0459  -4.7169  -4.6980  -4.6172  -4.5797  -4.0836  -4.0654  -0.8519
    -0.8297  -0.6053  -0.6042   0.3938   0.4364   0.4855   0.5192   0.5313
     0.7897   1.3495   1.3786   2.1228

          k =-0.1667 0.0722 0.0000 ( 31908 PWs)   bands (ev):

   -21.2839 -21.2755 -20.5578 -20.5496 -19.5691 -19.1313 -19.1226 -17.5269
   -17.5266 -17.1002 -17.0928 -16.9316 -16.9302 -16.8380 -16.8322 -15.1879
   -15.1876 -14.2577 -14.2497 -13.5112 -13.5112 -13.2578 -13.2376 -11.4665
   -11.4607 -11.2709 -10.7706 -10.7705 -10.5566 -10.5468  -9.6905  -9.6816
    -9.6674  -9.3393  -9.2604  -9.2520  -9.2041  -9.2015  -9.1639  -9.1637
    -8.7879  -8.7228  -8.3852  -8.3809  -7.8524  -7.8520  -7.5880  -7.5807
    -7.3139  -6.8577  -6.7742  -6.7194  -6.6972  -6.5932  -6.5894  -5.0408
    -4.9997  -4.7770  -4.7597  -4.7094  -4.6530  -4.5663  -4.5278  -0.4481
    -0.4476  -0.1992  -0.1771   0.3124   0.3273   0.4268   0.4888   0.5633
     0.8985   1.4729   1.4935   1.6013

          k =-0.1667-0.1443 0.0000 ( 31784 PWs)   bands (ev):

   -21.0159 -21.0100 -21.0055 -20.9948 -19.5687 -18.1792 -18.1743 -18.1718
   -18.1654 -17.2954 -17.2926 -17.2827 -17.2792 -16.8389 -16.8337 -14.4028
   -14.4006 -14.3942 -14.3923 -13.2582 -13.2346 -12.8678 -12.8673 -12.8604
   -12.8600 -11.2652 -10.2456 -10.2377 -10.2369 -10.2259  -9.8790  -9.8772
    -9.8647  -9.8628  -9.6763  -9.3388  -8.9659  -8.9500  -8.9353  -8.9279
    -8.7442  -8.6988  -8.3280  -8.3277  -8.3249  -8.3210  -7.3039  -7.0066
    -7.0059  -7.0037  -7.0005  -6.8434  -6.7384  -5.7085  -5.6925  -5.6852
    -5.6642  -4.9454  -4.8928  -4.8830  -4.8633  -4.6069  -4.5777  -0.0831
    -0.0821  -0.0495  -0.0465   0.3818   0.5123   0.6754   1.0371   1.1340
     1.1493   1.1497   1.1617   1.2781

     the Fermi energy is    -2.3092 ev

!    total energy              =    -351.28313351 Ry
     Harris-Foulkes estimate   =    -351.28313352 Ry
     estimated scf accuracy    <          7.8E-09 Ry

     The total energy is the sum of the following terms:

     one-electron contribution =   -4569.48617904 Ry
     hartree contribution      =    2304.82494676 Ry
     xc contribution           =    -112.23379230 Ry
     ewald contribution        =    2025.61471185 Ry
     smearing contrib. (-TS)   =      -0.00282078 Ry

     convergence has been achieved in   4 iterations

     Forces acting on atoms (cartesian axes, Ry/au):

     atom    1 type  1   force =    -0.00000054    0.00002200   -0.00002297
     atom    2 type  1   force =     0.00000000    0.00002551   -0.00007143
     atom    3 type  1   force =     0.00000000    0.00004565   -0.00006633
     atom    4 type  1   force =     0.00000789   -0.00003017    0.00000243
     atom    5 type  1   force =     0.00002746   -0.00000847    0.00007962
     atom    6 type  1   force =     0.00000000   -0.00003169    0.00002542
     atom    7 type  1   force =     0.00000000   -0.00001011    0.00002347
     atom    8 type  1   force =    -0.00002292   -0.00000848    0.00001208
     atom    9 type  1   force =     0.00000000    0.00000689   -0.00009119
     atom   10 type  1   force =     0.00000494   -0.00002445   -0.00004297
     atom   11 type  1   force =     0.00002392    0.00003300   -0.00004992
     atom   12 type  1   force =     0.00000000   -0.00003915   -0.00005783
     atom   13 type  1   force =     0.00000000   -0.00000092    0.00007234
     atom   14 type  1   force =    -0.00001196    0.00003623    0.00008792
     atom   15 type  1   force =    -0.00000493    0.00001169    0.00000734
     atom   16 type  1   force =     0.00000000   -0.00003592   -0.00000075
     atom   17 type  1   force =     0.00000054    0.00002200   -0.00002297
     atom   18 type  1   force =    -0.00000494   -0.00002445   -0.00004297
     atom   19 type  1   force =    -0.00002392    0.00003300   -0.00004992
     atom   20 type  1   force =    -0.00000789   -0.00003017    0.00000243
     atom   21 type  1   force =    -0.00002746   -0.00000847    0.00007962
     atom   22 type  1   force =     0.00001196    0.00003623    0.00008792
     atom   23 type  1   force =     0.00000493    0.00001169    0.00000734
     atom   24 type  1   force =     0.00002292   -0.00000848    0.00001208
     atom   25 type  1   force =     0.00000000   -0.00000712   -0.00001389
     atom   26 type  1   force =     0.00003777   -0.00001874    0.00001827
     atom   27 type  1   force =    -0.00001850    0.00001962   -0.00001040
     atom   28 type  1   force =     0.00000000    0.00002863   -0.00000051
     atom   29 type  1   force =     0.00001850    0.00001962   -0.00001040
     atom   30 type  1   force =    -0.00003777   -0.00001874    0.00001827
     atom   31 type  2   force =     0.00000000   -0.00002624    0.00000115
     atom   32 type  2   force =     0.00003506    0.00000838    0.00001144
     atom   33 type  2   force =     0.00004325   -0.00001343    0.00000315
     atom   34 type  2   force =     0.00000000   -0.00000990   -0.00001244
     atom   35 type  2   force =    -0.00004325   -0.00001343    0.00000315
     atom   36 type  2   force =    -0.00003506    0.00000838    0.00001144

     Total force =     0.000318     Total SCF correction =     0.000176
     SCF correction compared to forces is large: reduce conv_thr to get better values

     bfgs converged in  43 scf cycles and  42 bfgs steps
     (criteria: energy <  1.0E-05 Ry, force <  1.0E-04 Ry/Bohr)

     End of BFGS Geometry Optimization

     Final energy   =    -351.2831335141 Ry
Begin final coordinates

ATOMIC_POSITIONS (angstrom)
C        1.230280847  -0.000063720  -0.172622819
C        0.000000000   0.709697514  -0.174664320
C        0.000000000   2.130324384  -0.186828417
C        1.230348654   2.839781825  -0.193161543
C        1.230300344   4.260043793  -0.187419853
C        0.000000000   4.969746567  -0.177051686
C        0.000000000   6.390620445  -0.168281956
C        1.230090882   7.100737824  -0.168324282
C        3.690000000   0.000180975  -0.178064900
C        2.460432719   0.710188282  -0.184721788
C        2.460527444   2.130235234  -0.197995450
C        3.690000000   2.839918734  -0.203708521
C        3.690000000   4.259902385  -0.199212402
C        2.460596531   4.969775197  -0.188711999
C        2.460373186   6.390325659  -0.174650383
C        3.690000000   7.101030082  -0.172537245
C        6.149719153  -0.000063720  -0.172622819
C        4.919567281   0.710188282  -0.184721788
C        4.919472556   2.130235234  -0.197995450
C        6.149651346   2.839781825  -0.193161543
C        6.149699656   4.260043793  -0.187419853
C        4.919403469   4.969775197  -0.188711999
C        4.919626814   6.390325659  -0.174650383
C        6.149909118   7.100737824  -0.168324282
C        3.690000000   1.445991355   3.371050597
C        2.482082004   2.144050614   3.370683237
C        2.481963738   3.539376337   3.371179376
C        3.690000000   4.237222673   3.370917548
C        4.898036262   3.539376337   3.371179376
C        4.897917996   2.144050614   3.370683237
H        3.690000000   0.359263330   3.361854611
H        1.540834605   1.600565378   3.361026641
H        1.540792511   4.082818342   3.362238826
H        3.690000000   5.324091650   3.361486767
H        5.839207489   4.082818342   3.362238826
H        5.839165395   1.600565378   3.361026641
End final coordinates



     Writing output data file batch_graph+benzene.save/

     init_run     :     18.44s CPU     18.72s WALL (       1 calls)
     electrons    :   7735.54s CPU   7851.68s WALL (      43 calls)
     update_pot   :    147.62s CPU    151.02s WALL (      42 calls)
     forces       :    419.33s CPU    423.68s WALL (      43 calls)

     Called by init_run:
     wfcinit      :     14.08s CPU     14.20s WALL (       1 calls)
     potinit      :      2.37s CPU      2.48s WALL (       1 calls)
     hinit0       :      1.13s CPU      1.14s WALL (       1 calls)

     Called by electrons:
     c_bands      :   6381.18s CPU   6451.12s WALL (     265 calls)
     sum_band     :    801.20s CPU    819.53s WALL (     265 calls)
     v_of_rho     :    461.29s CPU    482.70s WALL (     296 calls)
     newd         :    165.59s CPU    174.88s WALL (     296 calls)
     mix_rho      :      9.33s CPU      9.61s WALL (     265 calls)

     Called by c_bands:
     init_us_2    :     25.94s CPU     26.03s WALL (    5166 calls)
     cegterg      :   6325.34s CPU   6394.62s WALL (    2385 calls)

     Called by sum_band:
     sum_band:bec :      0.94s CPU      0.95s WALL (    2385 calls)
     addusdens    :    119.83s CPU    128.99s WALL (     265 calls)

     Called by *egterg:
     h_psi        :   3204.02s CPU   3256.32s WALL (    8632 calls)
     s_psi        :    952.37s CPU    954.86s WALL (    8632 calls)
     g_psi        :      5.02s CPU      5.05s WALL (    6238 calls)
     cdiaghg      :    217.38s CPU    217.94s WALL (    8137 calls)

     Called by h_psi:
     h_psi:pot    :   3196.92s CPU   3243.08s WALL (    8632 calls)
     h_psi:calbec :   1019.54s CPU   1022.74s WALL (    8632 calls)
     vloc_psi     :   1220.34s CPU   1261.03s WALL (    8632 calls)
     add_vuspsi   :    956.99s CPU    959.29s WALL (    8632 calls)

     General routines
     calbec       :   1670.29s CPU   1675.38s WALL (   12565 calls)
     fft          :    285.51s CPU    296.41s WALL (   18702 calls)
     ffts         :      1.36s CPU      1.41s WALL (     561 calls)
     fftw         :   1371.07s CPU   1417.20s WALL ( 1113876 calls)
     interpolate  :      5.55s CPU      5.77s WALL (     296 calls)

     Parallel routines
     fft_scatt_xy :    149.05s CPU    154.61s WALL ( 1133139 calls)
     fft_scatt_yz :    243.18s CPU    263.11s WALL ( 1133139 calls)

     PWSCF        :      2h19m CPU      2h21m WALL


   This run was terminated on:   9: 9: 1   2Dec2020            

=------------------------------------------------------------------------------=
   JOB DONE.
=------------------------------------------------------------------------------=
