
     Program PWSCF v.6.4.1 starts on  2Dec2020 at  9: 9: 1 

     This program is part of the open-source Quantum ESPRESSO suite
     for quantum simulation of materials; please cite
         "P. Giannozzi et al., J. Phys.:Condens. Matter 21 395502 (2009);
         "P. Giannozzi et al., J. Phys.:Condens. Matter 29 465901 (2017);
          URL http://www.quantum-espresso.org", 
     in publications or presentations arising from this work. More details at
     http://www.quantum-espresso.org/quote

     Parallel version (MPI), running on     8 processors

     MPI processes distributed on     1 nodes
     R & G space division:  proc/nbgrp/npool/nimage =       8
     Waiting for input...
     Reading input from standard input

     Current dimensions of program PWSCF are:
     Max number of different atomic species (ntypx) = 10
     Max number of k-points (npk) =  40000
     Max angular momentum in pseudopotentials (lmaxx) =  3

     IMPORTANT: XC functional enforced from input :
     Exchange-correlation      = VDW-DF ( 1  4  4  0 1 0)
     Any further DFT definition will be discarded
     Please, verify this is what you really want

               file C.pbe-rrkjus.UPF: wavefunction(s)  2S 2P renormalized

     Subspace diagonalization in iterative solution of the eigenvalue problem:
     a serial algorithm will be used


     Parallelization info
     --------------------
     sticks:   dense  smooth     PW     G-vecs:    dense   smooth      PW
     Min         714     285     79               126154    31889    4649
     Max         715     286     80               126163    31900    4658
     Sum        5713    2283    637              1009261   255153   37237



     bravais-lattice index     =            0
     lattice parameter (alat)  =       4.6487  a.u.
     unit-cell volume          =   10440.3175 (a.u.)^3
     number of atoms/cell      =           36
     number of atomic types    =            2
     number of electrons       =       126.00
     number of Kohn-Sham states=           76
     kinetic-energy cutoff     =      32.0000  Ry
     charge density cutoff     =     320.0000  Ry
     convergence threshold     =      1.0E-06
     mixing beta               =       0.5000
     number of iterations used =            8  plain     mixing
     Exchange-correlation      = VDW-DF ( 1  4  4  0 1 0)
     nstep                     =          200


     celldm(1)=   4.648726  celldm(2)=   0.000000  celldm(3)=   0.000000
     celldm(4)=   0.000000  celldm(5)=   0.000000  celldm(6)=   0.000000

     crystal axes: (cart. coord. in units of alat)
               a(1) = (   3.000000   0.000000   0.000000 )  
               a(2) = (   0.000000   3.464102   0.000000 )  
               a(3) = (   0.000000   0.000000  10.000000 )  

     reciprocal axes: (cart. coord. in units 2 pi/alat)
               b(1) = (  0.333333  0.000000  0.000000 )  
               b(2) = (  0.000000  0.288675  0.000000 )  
               b(3) = (  0.000000  0.000000  0.100000 )  


     PseudoPot. # 1 for C  read from file:
     ../../pseudopotentials/C.pbe-rrkjus.UPF
     MD5 check sum: 00fb224312de0c5b6853bd333518df6f
     Pseudo is Ultrasoft, Zval =  4.0
     Generated by new atomic code, or converted to UPF format
     Using radial grid of  627 points,  4 beta functions with: 
                l(1) =   0
                l(2) =   0
                l(3) =   1
                l(4) =   1
     Q(r) pseudized with 0 coefficients 


     PseudoPot. # 2 for H  read from file:
     ../../pseudopotentials/H.pbe-rrkjus_psl.1.0.0.UPF
     MD5 check sum: 3f4114867bd07edc7f1424d066fc1888
     Pseudo is Ultrasoft, Zval =  1.0
     Generated using "atomic" code by A. Dal Corso v.6.3MaX
     Using radial grid of  929 points,  2 beta functions with: 
                l(1) =   0
                l(2) =   0
     Q(r) pseudized with 0 coefficients 


     vdW kernel table read from file vdW_kernel_table
     MD5 check sum: 48e77a2e26edf626eeb0eaa751ad5cac

     atomic species   valence    mass     pseudopotential
        C              4.00    12.01070     C ( 1.00)
        H              1.00     1.00790     H ( 1.00)

     No symmetry found



   Cartesian axes

     site n.     atom                  positions (alat units)
         1           C   tau(   1) = (   0.5000000   0.0000000   0.0000000  )
         2           C   tau(   2) = (   0.0000000   0.2886752   0.0000000  )
         3           C   tau(   3) = (   0.0000000   0.8660255   0.0000000  )
         4           C   tau(   4) = (   0.5000000   1.1547006   0.0000000  )
         5           C   tau(   5) = (   0.5000000   1.7320509   0.0000000  )
         6           C   tau(   6) = (   0.0000000   2.0207261   0.0000000  )
         7           C   tau(   7) = (   0.0000000   2.5980764   0.0000000  )
         8           C   tau(   8) = (   0.5000000   2.8867516   0.0000000  )
         9           C   tau(   9) = (   1.5000001   0.0000000   0.0000000  )
        10           C   tau(  10) = (   1.0000001   0.2886752   0.0000000  )
        11           C   tau(  11) = (   1.0000001   0.8660255   0.0000000  )
        12           C   tau(  12) = (   1.5000001   1.1547006   0.0000000  )
        13           C   tau(  13) = (   1.5000001   1.7320509   0.0000000  )
        14           C   tau(  14) = (   1.0000001   2.0207261   0.0000000  )
        15           C   tau(  15) = (   1.0000001   2.5980764   0.0000000  )
        16           C   tau(  16) = (   1.5000001   2.8867516   0.0000000  )
        17           C   tau(  17) = (   2.5000002   0.0000000   0.0000000  )
        18           C   tau(  18) = (   2.0000002   0.2886752   0.0000000  )
        19           C   tau(  19) = (   2.0000002   0.8660255   0.0000000  )
        20           C   tau(  20) = (   2.5000002   1.1547006   0.0000000  )
        21           C   tau(  21) = (   2.5000002   1.7320509   0.0000000  )
        22           C   tau(  22) = (   2.0000002   2.0207261   0.0000000  )
        23           C   tau(  23) = (   2.0000002   2.5980764   0.0000000  )
        24           C   tau(  24) = (   2.5000002   2.8867516   0.0000000  )
        25           C   tau(  25) = (   1.6467548   0.6070046   1.2195123  )
        26           C   tau(  26) = (   1.0991457   0.7537804   1.2195123  )
        27           C   tau(  27) = (   0.9523899   1.3014805   1.2195123  )
        28           C   tau(  28) = (   1.3532454   1.7023966   1.2195123  )
        29           C   tau(  29) = (   1.9008546   1.5556208   1.2195123  )
        30           C   tau(  30) = (   2.0476104   1.0079208   1.2195123  )
        31           H   tau(  31) = (   1.7615134   0.1787198   1.2195123  )
        32           H   tau(  32) = (   0.7856197   0.4403413   1.2195123  )
        33           H   tau(  33) = (   0.5241489   1.4161638   1.2195123  )
        34           H   tau(  34) = (   1.2384868   2.1306815   1.2195123  )
        35           H   tau(  35) = (   2.2143805   1.8690600   1.2195123  )
        36           H   tau(  36) = (   2.4758513   0.8932375   1.2195123  )

     number of k points=    10  gaussian smearing, width (Ry)=  0.0200
                       cart. coord. in units 2pi/alat
        k(    1) = (   0.0000000   0.0000000   0.0000000), wk =   0.1250000
        k(    2) = (   0.0000000   0.0721688   0.0000000), wk =   0.2500000
        k(    3) = (   0.0000000  -0.1443376   0.0000000), wk =   0.1250000
        k(    4) = (   0.0833333   0.0000000   0.0000000), wk =   0.2500000
        k(    5) = (   0.0833333   0.0721688   0.0000000), wk =   0.2500000
        k(    6) = (   0.0833333  -0.1443376   0.0000000), wk =   0.2500000
        k(    7) = (  -0.1666667   0.0000000   0.0000000), wk =   0.1250000
        k(    8) = (  -0.1666667   0.0721688   0.0000000), wk =   0.2500000
        k(    9) = (  -0.1666667  -0.1443376   0.0000000), wk =   0.1250000
        k(   10) = (  -0.0833333   0.0721688   0.0000000), wk =   0.2500000

     Dense  grid:  1009261 G-vectors     FFT dimensions: (  80,  96, 270)

     Smooth grid:   255153 G-vectors     FFT dimensions: (  54,  60, 180)

     Estimated max dynamical RAM per process >     428.17 MB

     Estimated total dynamical RAM >       3.35 GB

     Initial potential from superposition of free atoms

     starting charge  125.99836, renormalised to  126.00000

     negative rho (up, down):  2.511E-04 0.000E+00


     %%%%%%%%%%%%%%%%%%%%%%%%%%%%%%%%%%%%%%%%%%%%%%%%%%%%%%%%%%%%%%%%%%%%%%%%
     %                                                                      %
     % You are using vdW-DF, which was implemented by the Thonhauser group. %
     % Please cite the following two papers that made this development      %
     % possible and the two reviews that describe the various versions:     %
     %                                                                      %
     %   T. Thonhauser et al., PRL 115, 136402 (2015).                      %
     %   T. Thonhauser et al., PRB 76, 125112 (2007).                       %
     %   K. Berland et al., Rep. Prog. Phys. 78, 066501 (2015).             %
     %   D.C. Langreth et al., J. Phys.: Condens. Matter 21, 084203 (2009). %
     %                                                                      %
     %                                                                      %
     % If you are calculating the stress with vdW-DF, please also cite:     %
     %                                                                      %
     %   R. Sabatini et al., J. Phys.: Condens. Matter 24, 424209 (2012).   %
     %                                                                      %
     %%%%%%%%%%%%%%%%%%%%%%%%%%%%%%%%%%%%%%%%%%%%%%%%%%%%%%%%%%%%%%%%%%%%%%%%


     Starting wfcs are  126 randomized atomic wfcs

     total cpu time spent up to now is       20.7 secs

     Self-consistent Calculation

     iteration #  1     ecut=    32.00 Ry     beta= 0.50
     Davidson diagonalization with overlap
     ethr =  1.00E-02,  avg # of iterations =  2.0

     negative rho (up, down):  2.135E-04 0.000E+00

     total cpu time spent up to now is       57.9 secs

     total energy              =    -350.86949250 Ry
     Harris-Foulkes estimate   =    -352.96837739 Ry
     estimated scf accuracy    <       4.24383086 Ry

     iteration #  2     ecut=    32.00 Ry     beta= 0.50
     Davidson diagonalization with overlap
     ethr =  3.37E-03,  avg # of iterations =  6.0

     negative rho (up, down):  5.235E-04 0.000E+00

     total cpu time spent up to now is       90.3 secs

     total energy              =    -351.20709807 Ry
     Harris-Foulkes estimate   =    -351.36174649 Ry
     estimated scf accuracy    <       0.39477195 Ry

     iteration #  3     ecut=    32.00 Ry     beta= 0.50
     Davidson diagonalization with overlap
     c_bands:  2 eigenvalues not converged
     ethr =  3.13E-04,  avg # of iterations = 10.0

     negative rho (up, down):  4.470E-04 0.000E+00

     total cpu time spent up to now is      126.8 secs

     total energy              =    -351.24541304 Ry
     Harris-Foulkes estimate   =    -351.26208575 Ry
     estimated scf accuracy    <       0.05238479 Ry

     iteration #  4     ecut=    32.00 Ry     beta= 0.50
     Davidson diagonalization with overlap
     ethr =  4.16E-05,  avg # of iterations =  6.8

     negative rho (up, down):  2.911E-04 0.000E+00

     total cpu time spent up to now is      162.3 secs

     total energy              =    -351.25332347 Ry
     Harris-Foulkes estimate   =    -351.25864689 Ry
     estimated scf accuracy    <       0.01636517 Ry

     iteration #  5     ecut=    32.00 Ry     beta= 0.50
     Davidson diagonalization with overlap
     ethr =  1.30E-05,  avg # of iterations =  4.1

     negative rho (up, down):  3.044E-04 0.000E+00

     total cpu time spent up to now is      193.1 secs

     total energy              =    -351.25663534 Ry
     Harris-Foulkes estimate   =    -351.25696907 Ry
     estimated scf accuracy    <       0.00260603 Ry

     iteration #  6     ecut=    32.00 Ry     beta= 0.50
     Davidson diagonalization with overlap
     ethr =  2.07E-06,  avg # of iterations =  7.4

     negative rho (up, down):  2.459E-04 0.000E+00

     total cpu time spent up to now is      226.5 secs

     total energy              =    -351.25701611 Ry
     Harris-Foulkes estimate   =    -351.25709016 Ry
     estimated scf accuracy    <       0.00026411 Ry

     iteration #  7     ecut=    32.00 Ry     beta= 0.50
     Davidson diagonalization with overlap
     ethr =  2.10E-07,  avg # of iterations =  2.2

     negative rho (up, down):  2.257E-04 0.000E+00

     total cpu time spent up to now is      254.9 secs

     total energy              =    -351.25706621 Ry
     Harris-Foulkes estimate   =    -351.25706501 Ry
     estimated scf accuracy    <       0.00002155 Ry

     iteration #  8     ecut=    32.00 Ry     beta= 0.50
     Davidson diagonalization with overlap
     ethr =  1.71E-08,  avg # of iterations =  2.2

     negative rho (up, down):  2.175E-04 0.000E+00

     total cpu time spent up to now is      287.5 secs

     total energy              =    -351.25707047 Ry
     Harris-Foulkes estimate   =    -351.25707149 Ry
     estimated scf accuracy    <       0.00000379 Ry

     iteration #  9     ecut=    32.00 Ry     beta= 0.50
     Davidson diagonalization with overlap
     ethr =  3.01E-09,  avg # of iterations =  2.1

     negative rho (up, down):  2.142E-04 0.000E+00

     total cpu time spent up to now is      316.7 secs

     End of self-consistent calculation

          k = 0.0000 0.0000 0.0000 ( 31971 PWs)   bands (ev):

   -21.9136 -20.4611 -20.4551 -19.9865 -19.9771 -19.5538 -18.5709 -18.5707
   -18.5640 -18.5615 -16.8275 -16.8127 -16.7208 -15.6370 -15.0594 -15.0593
   -15.0587 -15.0571 -13.2595 -13.2353 -13.0831 -13.0811 -13.0799 -13.0761
   -12.9399 -12.9397 -11.3398 -10.2672 -10.2660 -10.0098  -9.9197  -9.9186
    -9.6669  -9.3235  -9.0907  -9.0902  -9.0762  -9.0735  -8.9405  -8.9052
    -8.9036  -8.7549  -8.6496  -8.3926  -8.2127  -7.8271  -7.7036  -7.5873
    -7.5854  -7.0341  -6.7849  -6.7707  -6.2160  -6.2019  -6.1172  -6.0617
    -5.6155  -5.6145  -4.7962  -4.4757  -4.4600  -2.3688  -2.3667  -2.3658
    -2.3643  -0.6584  -0.0526   0.4191   0.5214   0.6986   1.3586   1.3639
     1.3776   1.4018   1.5800   1.9850

          k = 0.0000 0.0722 0.0000 ( 31929 PWs)   bands (ev):

   -21.8218 -21.0911 -19.8991 -19.8876 -19.6650 -19.5437 -19.1776 -19.1708
   -17.8022 -17.8015 -17.5874 -16.8174 -16.8128 -15.9306 -15.9304 -14.6470
   -14.5299 -14.5292 -13.6839 -13.6827 -13.2480 -13.2262 -12.4217 -12.4214
   -12.3568 -12.3564 -11.5523 -11.3314 -10.7275 -10.7268 -10.1248 -10.1243
    -9.9101  -9.6679  -9.3224  -9.1094  -8.8499  -8.6630  -8.6485  -8.5908
    -8.5893  -8.4195  -8.4175  -8.3419  -8.1505  -7.7885  -7.6115  -7.4198
    -7.0896  -6.9403  -6.8997  -6.7790  -6.6880  -6.6460  -5.9802  -5.8055
    -5.4043  -5.3680  -5.2594  -4.4732  -4.4670  -3.3761  -3.3617  -1.3953
    -1.3788  -0.0276   0.0895   0.3272   0.4400   0.5537   0.6201   0.8286
     1.3060   1.7837   1.8644   2.2054

          k = 0.0000-0.1443 0.0000 ( 31940 PWs)   bands (ev):

   -21.5539 -21.5401 -19.6727 -19.6297 -19.6278 -19.6120 -19.5029 -18.6863
   -18.6768 -16.9378 -16.9198 -16.9042 -16.8996 -16.7938 -16.7870 -14.1563
   -14.1556 -14.1424 -14.1397 -13.2564 -13.2262 -13.1529 -13.1446 -11.5462
   -11.5457 -11.5381 -11.5372 -11.3382 -11.3259 -11.3178 -11.3173 -11.3103
    -9.6703  -9.6170  -9.5961  -9.3218  -8.6894  -8.6463  -8.5928  -8.5673
    -8.2848  -8.2822  -8.2749  -8.2737  -7.6373  -7.3355  -7.3295  -7.3159
    -6.9746  -6.9556  -6.9160  -6.7486  -6.7171  -6.3435  -6.3103  -6.2905
    -6.2134  -4.7484  -4.6732  -4.3950  -4.3777  -4.2219  -4.1525  -0.5053
    -0.4508  -0.4443  -0.4285   0.3379   0.4828   0.5240   0.8681   1.1987
     1.2540   1.4327   1.4743   2.0584

          k = 0.0833 0.0000 0.0000 ( 31951 PWs)   bands (ev):

   -21.7912 -20.8192 -20.3418 -20.3352 -19.5733 -19.3841 -19.3688 -18.9148
   -17.5612 -17.5587 -16.8234 -16.8214 -16.6197 -16.2730 -15.7861 -15.5362
   -14.8863 -14.6238 -14.6226 -14.1292 -13.2340 -13.2294 -12.4081 -12.1630
   -11.7090 -11.4912 -11.4890 -11.3022 -10.1828  -9.9448  -9.9442  -9.8754
    -9.6737  -9.4494  -9.3234  -9.1582  -9.1567  -8.9824  -8.9815  -8.8685
    -8.7458  -8.7299  -8.5932  -8.2273  -8.0949  -8.0422  -8.0403  -7.6653
    -7.2916  -7.0757  -6.8650  -6.7476  -6.7188  -6.4469  -6.0878  -5.8758
    -5.2777  -5.2471  -4.6855  -4.5024  -4.4198  -3.6426  -3.3813  -1.4163
    -1.0829  -0.7026  -0.0422  -0.0244   0.1549   0.5025   0.5565   0.8727
     1.5205   1.7386   2.1559   2.1943

          k = 0.0833 0.0722 0.0000 ( 31951 PWs)   bands (ev):

   -21.6996 -20.9702 -20.7287 -20.0110 -19.5861 -19.5028 -18.8275 -18.5966
   -18.1389 -17.4775 -16.8922 -16.8198 -16.8075 -16.6028 -16.2372 -15.1400
   -14.6500 -14.5560 -14.0392 -13.9154 -13.2320 -13.2285 -12.2207 -12.2096
   -11.9878 -11.7781 -11.5164 -11.2956 -10.7263 -10.3418  -9.7747  -9.7283
    -9.6914  -9.6709  -9.3577  -9.3218  -9.1517  -8.9868  -8.8162  -8.7712
    -8.6606  -8.6349  -8.5060  -8.4767  -8.1579  -7.8148  -7.5232  -7.3418
    -7.3353  -6.9837  -6.7758  -6.7357  -6.4288  -6.3761  -6.1444  -6.0461
    -5.7551  -5.1643  -4.7609  -4.4956  -4.4502  -3.9802  -3.7590  -1.0546
    -0.7388  -0.5564  -0.0721   0.2680   0.4558   0.5358   0.7305   1.0016
     1.4366   1.5840   1.6815   1.9288

          k = 0.0833-0.1443 0.0000 ( 31876 PWs)   bands (ev):

   -21.4321 -21.4183 -20.4641 -20.4520 -19.5597 -18.5768 -18.5710 -18.5633
   -18.5564 -17.6651 -17.6571 -16.8233 -16.8166 -16.3137 -16.3026 -15.2511
   -15.2491 -13.2401 -13.2358 -13.0835 -13.0833 -13.0780 -13.0753 -13.0105
   -13.0006 -11.3962 -11.3797 -11.2880 -10.7056 -10.6976  -9.9229  -9.9142
    -9.6759  -9.4878  -9.4535  -9.3235  -9.0931  -9.0864  -9.0785  -9.0709
    -8.7618  -8.6955  -8.3086  -8.2587  -7.5909  -7.5833  -7.2700  -7.2596
    -7.1194  -6.7743  -6.7574  -6.6083  -6.5966  -6.2143  -6.1569  -6.1400
    -6.0921  -5.2096  -5.1253  -4.5462  -4.4209  -4.1264  -4.0610  -0.9084
    -0.8927   0.3444   0.3941   0.4762   0.5270   0.6107   1.0515   1.3518
     1.3656   1.3763   1.3853   1.4069

          k =-0.1667 0.0000 0.0000 ( 31854 PWs)   bands (ev):

   -21.4302 -21.4203 -19.9894 -19.9845 -19.9832 -19.9699 -19.5419 -17.6639
   -17.6587 -16.8403 -16.8264 -16.7239 -16.7189 -16.3161 -16.2994 -15.6370
   -15.6352 -15.2599 -15.2419 -13.2359 -13.2164 -13.0067 -13.0047 -11.3889
   -11.3878 -11.2636 -10.7074 -10.6954 -10.2714 -10.2700 -10.2638 -10.2632
    -9.6849  -9.4801  -9.4668  -9.3239  -8.9430  -8.9425  -8.9065  -8.9046
    -8.9035  -8.8993  -8.7398  -8.7107  -7.9431  -7.7222  -7.7098  -7.7044
    -7.2708  -7.2573  -6.9162  -6.7441  -6.7225  -6.6099  -6.5962  -5.2594
    -5.0982  -4.7959  -4.7795  -4.5578  -4.4018  -4.1210  -4.0715  -0.9281
    -0.8748  -0.6604  -0.6554   0.3491   0.4341   0.5439   0.5697   0.6246
     0.8719   1.3709   1.4122   2.1893

          k =-0.1667 0.0722 0.0000 ( 31908 PWs)   bands (ev):

   -21.3389 -21.3291 -20.6127 -20.6040 -19.5623 -19.1859 -19.1657 -17.5820
   -17.5767 -17.1548 -17.1468 -16.9936 -16.9817 -16.8141 -16.8085 -15.2362
   -15.2357 -14.3120 -14.2960 -13.5615 -13.5588 -13.2309 -13.2140 -11.5190
   -11.5063 -11.2574 -10.8192 -10.8191 -10.6040 -10.5920  -9.7395  -9.7282
    -9.6822  -9.3856  -9.3625  -9.3244  -9.2505  -9.2491  -9.2108  -9.2092
    -8.7818  -8.7642  -8.4461  -8.4158  -7.8996  -7.8961  -7.6331  -7.6243
    -7.1969  -6.8599  -6.7673  -6.6944  -6.6450  -6.6362  -6.6321  -5.2220
    -5.0591  -4.8874  -4.8639  -4.7690  -4.7086  -4.3500  -4.3403  -0.5115
    -0.5045  -0.2782  -0.2392   0.2177   0.2707   0.5676   0.5732   0.6633
     0.9848   1.5007   1.5256   1.6861

          k =-0.1667-0.1443 0.0000 ( 31784 PWs)   bands (ev):

   -21.0730 -21.0623 -21.0584 -21.0500 -19.5578 -18.2331 -18.2292 -18.2238
   -18.2107 -17.3503 -17.3470 -17.3406 -17.3247 -16.8197 -16.8151 -14.4529
   -14.4522 -14.4399 -14.4392 -13.2344 -13.2165 -12.9233 -12.9174 -12.9053
   -12.9020 -11.2512 -10.2981 -10.2884 -10.2792 -10.2654  -9.9303  -9.9267
    -9.9117  -9.9069  -9.6861  -9.3250  -9.1346  -9.1107  -9.0731  -8.9890
    -8.6525  -8.6144  -8.3740  -8.3726  -8.3725  -8.3641  -7.0955  -7.0545
    -7.0527  -7.0500  -7.0434  -6.7607  -6.7303  -5.8791  -5.7697  -5.7424
    -5.6815  -5.1463  -4.9557  -4.9419  -4.9173  -4.4138  -4.3484  -0.1980
    -0.1427  -0.1065  -0.0955   0.4813   0.5580   0.7766   1.0744   1.0879
     1.1010   1.1170   1.1589   1.3849

          k =-0.0833 0.0722 0.0000 ( 31951 PWs)   bands (ev):

   -21.6996 -20.9702 -20.7287 -20.0110 -19.5861 -19.5029 -18.8275 -18.5966
   -18.1389 -17.4774 -16.8912 -16.8200 -16.8085 -16.6026 -16.2373 -15.1399
   -14.6499 -14.5558 -14.0395 -13.9153 -13.2321 -13.2291 -12.2203 -12.2093
   -11.9880 -11.7780 -11.5161 -11.2960 -10.7263 -10.3418  -9.7747  -9.7298
    -9.6915  -9.6678  -9.3592  -9.3208  -9.1518  -8.9873  -8.8159  -8.7702
    -8.6607  -8.6362  -8.5093  -8.4761  -8.1578  -7.8202  -7.5230  -7.3357
    -7.3350  -6.9710  -6.7657  -6.7428  -6.4288  -6.3936  -6.1456  -6.0461
    -5.7556  -5.1605  -4.7581  -4.4988  -4.4508  -3.9792  -3.7601  -1.0517
    -0.7414  -0.5521  -0.0606   0.2744   0.4479   0.5266   0.7182   1.0018
     1.4502   1.6191   1.6830   1.9250

     the Fermi energy is    -2.3664 ev

!    total energy              =    -351.25707087 Ry
     Harris-Foulkes estimate   =    -351.25707109 Ry
     estimated scf accuracy    <       0.00000040 Ry

     The total energy is the sum of the following terms:

     one-electron contribution =   -4816.24654963 Ry
     hartree contribution      =    2428.09939409 Ry
     xc contribution           =    -112.31095369 Ry
     ewald contribution        =    2149.20385922 Ry
     smearing contrib. (-TS)   =      -0.00282087 Ry

     convergence has been achieved in   9 iterations

     Forces acting on atoms (cartesian axes, Ry/au):

     atom    1 type  1   force =     0.00057105    0.00101013   -0.00006573
     atom    2 type  1   force =     0.00013113   -0.00071601    0.00172068
     atom    3 type  1   force =     0.00026209    0.00180884    0.00003888
     atom    4 type  1   force =     0.00013221   -0.00082739   -0.00490749
     atom    5 type  1   force =     0.00093839   -0.00005081   -0.00191792
     atom    6 type  1   force =     0.00003500   -0.00081217    0.00078720
     atom    7 type  1   force =    -0.00004568    0.00020717    0.00077620
     atom    8 type  1   force =    -0.00010184   -0.00019142    0.00063725
     atom    9 type  1   force =    -0.00016499    0.00147652   -0.00211936
     atom   10 type  1   force =     0.00076869    0.00018672   -0.00506743
     atom   11 type  1   force =     0.00118497    0.00076254   -0.00848720
     atom   12 type  1   force =     0.00000293   -0.00043281   -0.00987523
     atom   13 type  1   force =     0.00002630   -0.00027627   -0.00870133
     atom   14 type  1   force =     0.00067516   -0.00092665   -0.00504911
     atom   15 type  1   force =     0.00030509   -0.00086929    0.00009853
     atom   16 type  1   force =    -0.00016323    0.00040011    0.00129441
     atom   17 type  1   force =    -0.00074305    0.00125461    0.00042756
     atom   18 type  1   force =    -0.00053176    0.00033633   -0.00510502
     atom   19 type  1   force =    -0.00117988    0.00077115   -0.00849012
     atom   20 type  1   force =    -0.00019513   -0.00050944   -0.00483069
     atom   21 type  1   force =    -0.00075596   -0.00032834   -0.00192108
     atom   22 type  1   force =    -0.00099310   -0.00085528   -0.00508039
     atom   23 type  1   force =    -0.00043666   -0.00108512    0.00061241
     atom   24 type  1   force =     0.00026951   -0.00029572    0.00076127
     atom   25 type  1   force =    -0.00108270   -0.00530607    0.01087366
     atom   26 type  1   force =    -0.00099542   -0.00332941    0.00991975
     atom   27 type  1   force =    -0.00404979    0.00329862    0.01090318
     atom   28 type  1   force =    -0.00350991    0.00229185    0.00990981
     atom   29 type  1   force =     0.00588673    0.00086039    0.01087485
     atom   30 type  1   force =     0.00374266    0.00214328    0.00993948
     atom   31 type  2   force =    -0.00145049    0.00540186    0.00046759
     atom   32 type  2   force =     0.00357550    0.00345726    0.00014412
     atom   33 type  2   force =     0.00539721   -0.00108199    0.00057649
     atom   34 type  2   force =     0.00137995   -0.00505082    0.00014867
     atom   35 type  2   force =    -0.00384366   -0.00369822    0.00047257
     atom   36 type  2   force =    -0.00504131    0.00097585    0.00023356

     Total force =     0.038357     Total SCF correction =     0.001417

     BFGS Geometry Optimization

     number of scf cycles    =   1
     number of bfgs steps    =   0

     energy   new            =    -351.2570708740 Ry

     new trust radius        =       0.0123958164 bohr
     new conv_thr            =       0.0000010000 Ry


ATOMIC_POSITIONS (angstrom)
C        1.230302186   0.000534535  -0.000034785
C        0.000069392   0.709761936   0.000910544
C        0.000138693   2.131379689   0.000020573
C        1.230069964   2.840125489  -0.002596933
C        1.230496572   4.260818100  -0.001014920
C        0.000018521   4.970556036   0.000416570
C       -0.000024171   6.391377107   0.000410746
C        1.229946110   7.101307014   0.000337218
C        3.689912693   0.000781343  -0.001121515
C        2.460406775   0.710239639  -0.002681570
C        2.460627060   2.130826011  -0.004491233
C        3.690001550   2.840334290  -0.005225745
C        3.690013917   4.260698793  -0.004604546
C        2.460357277   4.970495454  -0.002671872
C        2.460161445   6.390807470   0.000052139
C        3.689913621   7.101620040   0.000684972
C        6.149606792   0.000663909   0.000226253
C        4.919718604   0.710318810  -0.002701461
C        4.919375637   2.130830566  -0.004492779
C        6.149896742   2.840293740  -0.002556290
C        6.149599964   4.260671239  -0.001016590
C        4.919474476   4.970533222  -0.002688427
C        4.919768929   6.390693262   0.000324071
C        6.150142616   7.101251820   0.000402845
C        4.050443602   1.490423387   3.005754091
C        2.703371352   1.852537877   3.005249306
C        2.340735856   3.203387264   3.005769715
C        3.327126090   4.189108210   3.005244046
C        4.679217017   3.827282225   3.005754723
C        5.039101617   2.480619114   3.005259748
H        4.332555070   0.442509101   3.000247436
H        1.934516458   1.085068976   3.000076265
H        1.292262229   3.483190052   3.000305066
H        3.047407600   5.238803313   3.000078674
H        5.445341636   4.595930162   3.000250072
H        6.087926106   2.197880431   3.000123594



     Writing output data file batch_graph+benzene.save/
     NEW-OLD atomic charge density approx. for the potential

     negative rho (up, down):  2.138E-04 0.000E+00

     total cpu time spent up to now is      331.5 secs

     Self-consistent Calculation

     iteration #  1     ecut=    32.00 Ry     beta= 0.50
     Davidson diagonalization with overlap
     ethr =  1.00E-06,  avg # of iterations =  3.0

     negative rho (up, down):  2.140E-04 0.000E+00

     total cpu time spent up to now is      373.5 secs

     total energy              =    -351.25821781 Ry
     Harris-Foulkes estimate   =    -351.25834164 Ry
     estimated scf accuracy    <       0.00028564 Ry

     iteration #  2     ecut=    32.00 Ry     beta= 0.50
     Davidson diagonalization with overlap
     ethr =  2.27E-07,  avg # of iterations =  2.0

     negative rho (up, down):  2.141E-04 0.000E+00

     total cpu time spent up to now is      403.0 secs

     total energy              =    -351.25825975 Ry
     Harris-Foulkes estimate   =    -351.25826692 Ry
     estimated scf accuracy    <       0.00003228 Ry

     iteration #  3     ecut=    32.00 Ry     beta= 0.50
     Davidson diagonalization with overlap
     ethr =  2.56E-08,  avg # of iterations =  2.0

     negative rho (up, down):  2.145E-04 0.000E+00

     total cpu time spent up to now is      432.4 secs

     total energy              =    -351.25826406 Ry
     Harris-Foulkes estimate   =    -351.25826526 Ry
     estimated scf accuracy    <       0.00000715 Ry

     iteration #  4     ecut=    32.00 Ry     beta= 0.50
     Davidson diagonalization with overlap
     ethr =  5.68E-09,  avg # of iterations =  2.0

     negative rho (up, down):  2.145E-04 0.000E+00

     total cpu time spent up to now is      461.6 secs

     total energy              =    -351.25826523 Ry
     Harris-Foulkes estimate   =    -351.25826563 Ry
     estimated scf accuracy    <       0.00000189 Ry

     iteration #  5     ecut=    32.00 Ry     beta= 0.50
     Davidson diagonalization with overlap
     ethr =  1.50E-09,  avg # of iterations =  2.4

     negative rho (up, down):  2.141E-04 0.000E+00

     total cpu time spent up to now is      489.8 secs

     End of self-consistent calculation

          k = 0.0000 0.0000 0.0000 ( 31971 PWs)   bands (ev):

   -21.9174 -20.4641 -20.4595 -19.9902 -19.9805 -19.5294 -18.5752 -18.5729
   -18.5686 -18.5666 -16.8207 -16.8114 -16.7259 -15.6376 -15.0664 -15.0630
   -15.0619 -15.0601 -13.2702 -13.2449 -13.0886 -13.0869 -13.0841 -13.0817
   -12.9449 -12.9440 -11.3499 -10.2766 -10.2728 -10.0122  -9.9210  -9.9195
    -9.7131  -9.3063  -9.0920  -9.0915  -9.0809  -9.0791  -8.9477  -8.9044
    -8.9040  -8.7636  -8.6639  -8.3901  -8.2180  -7.8258  -7.7062  -7.5951
    -7.5941  -7.0283  -6.7925  -6.7862  -6.2156  -6.2031  -6.1226  -6.0683
    -5.6252  -5.6136  -4.7984  -4.4746  -4.4575  -2.3758  -2.3705  -2.3679
    -2.3675  -0.6579  -0.0438   0.4078   0.5120   0.6980   1.3525   1.3577
     1.3741   1.3964   1.5821   1.9860

          k = 0.0000 0.0722 0.0000 ( 31929 PWs)   bands (ev):

   -21.8257 -21.0950 -19.9024 -19.8909 -19.6652 -19.5233 -19.1809 -19.1755
   -17.8068 -17.8049 -17.5915 -16.8118 -16.8100 -15.9350 -15.9342 -14.6488
   -14.5343 -14.5342 -13.6886 -13.6877 -13.2590 -13.2369 -12.4260 -12.4248
   -12.3628 -12.3614 -11.5540 -11.3416 -10.7353 -10.7323 -10.1283 -10.1275
    -9.9124  -9.7142  -9.3052  -9.1114  -8.8571  -8.6718  -8.6624  -8.5930
    -8.5908  -8.4210  -8.4208  -8.3432  -8.1584  -7.7826  -7.6137  -7.4212
    -7.0876  -6.9491  -6.9040  -6.7880  -6.7000  -6.6513  -5.9787  -5.8159
    -5.4046  -5.3697  -5.2651  -4.4722  -4.4630  -3.3801  -3.3664  -1.3989
    -1.3833  -0.0275   0.0964   0.3219   0.4349   0.5445   0.6082   0.8277
     1.3110   1.7900   1.8638   2.2064

          k = 0.0000-0.1443 0.0000 ( 31940 PWs)   bands (ev):

   -21.5569 -21.5449 -19.6661 -19.6334 -19.6302 -19.6163 -19.4899 -18.6892
   -18.6818 -16.9371 -16.9226 -16.9065 -16.9062 -16.7941 -16.7833 -14.1600
   -14.1587 -14.1476 -14.1469 -13.2660 -13.2371 -13.1558 -13.1469 -11.5517
   -11.5499 -11.5446 -11.5437 -11.3440 -11.3285 -11.3227 -11.3216 -11.3178
    -9.7162  -9.6180  -9.5994  -9.3046  -8.6989  -8.6604  -8.5974  -8.5780
    -8.2872  -8.2865  -8.2764  -8.2751  -7.6266  -7.3371  -7.3318  -7.3190
    -6.9767  -6.9525  -6.9176  -6.7563  -6.7329  -6.3448  -6.3177  -6.3024
    -6.2210  -4.7402  -4.6694  -4.3980  -4.3837  -4.2272  -4.1566  -0.5083
    -0.4543  -0.4478  -0.4344   0.3401   0.4734   0.5113   0.8773   1.1975
     1.2569   1.4292   1.4740   2.0666

          k = 0.0833 0.0000 0.0000 ( 31951 PWs)   bands (ev):

   -21.7951 -20.8231 -20.3447 -20.3397 -19.5497 -19.3886 -19.3708 -18.9189
   -17.5647 -17.5630 -16.8209 -16.8154 -16.6254 -16.2769 -15.7922 -15.5368
   -14.8868 -14.6291 -14.6278 -14.1358 -13.2453 -13.2398 -12.4102 -12.1693
   -11.7165 -11.4953 -11.4942 -11.3127 -10.1834  -9.9463  -9.9451  -9.8776
    -9.7199  -9.4564  -9.3062  -9.1614  -9.1608  -8.9852  -8.9847  -8.8742
    -8.7547  -8.7388  -8.6015  -8.2265  -8.0996  -8.0498  -8.0488  -7.6647
    -7.2846  -7.0789  -6.8677  -6.7577  -6.7305  -6.4514  -6.0982  -5.8741
    -5.2782  -5.2488  -4.6847  -4.5011  -4.4212  -3.6457  -3.3884  -1.4163
    -1.0893  -0.7022  -0.0469  -0.0297   0.1613   0.4903   0.5445   0.8720
     1.5224   1.7413   2.1535   2.1939

          k = 0.0833 0.0722 0.0000 ( 31951 PWs)   bands (ev):

   -21.7035 -20.9740 -20.7326 -20.0145 -19.5727 -19.4952 -18.8317 -18.6006
   -18.1430 -17.4816 -16.8936 -16.8162 -16.8050 -16.6073 -16.2409 -15.1455
   -14.6560 -14.5579 -14.0413 -13.9206 -13.2432 -13.2391 -12.2268 -12.2135
   -11.9943 -11.7807 -11.5181 -11.3061 -10.7314 -10.3464  -9.7768  -9.7328
    -9.7213  -9.6875  -9.3642  -9.3051  -9.1588  -8.9894  -8.8236  -8.7739
    -8.6690  -8.6428  -8.5132  -8.4776  -8.1612  -7.8143  -7.5243  -7.3439
    -7.3396  -6.9808  -6.7908  -6.7441  -6.4342  -6.3802  -6.1473  -6.0495
    -5.7579  -5.1675  -4.7585  -4.4930  -4.4507  -3.9865  -3.7622  -1.0609
    -0.7402  -0.5622  -0.0720   0.2729   0.4484   0.5230   0.7218   1.0005
     1.4407   1.5860   1.6784   1.9250

          k = 0.0833-0.1443 0.0000 ( 31876 PWs)   bands (ev):

   -21.4351 -21.4231 -20.4671 -20.4567 -19.5344 -18.5793 -18.5744 -18.5685
   -18.5614 -17.6679 -17.6622 -16.8219 -16.8097 -16.3170 -16.3061 -15.2564
   -15.2558 -13.2487 -13.2475 -13.0895 -13.0859 -13.0814 -13.0789 -13.0129
   -13.0046 -11.4000 -11.3874 -11.2985 -10.7083 -10.7010  -9.9273  -9.9216
    -9.7220  -9.4887  -9.4563  -9.3061  -9.0977  -9.0896  -9.0818  -9.0795
    -8.7730  -8.7046  -8.3101  -8.2621  -7.5951  -7.5838  -7.2742  -7.2590
    -7.1092  -6.7837  -6.7718  -6.6134  -6.6058  -6.2156  -6.1597  -6.1432
    -6.0988  -5.2083  -5.1306  -4.5431  -4.4194  -4.1300  -4.0649  -0.9145
    -0.8990   0.3408   0.3900   0.4759   0.5212   0.6002   1.0584   1.3491
     1.3627   1.3723   1.3799   1.4053

          k =-0.1667 0.0000 0.0000 ( 31854 PWs)   bands (ev):

   -21.4324 -21.4259 -19.9917 -19.9867 -19.9853 -19.9772 -19.5183 -17.6678
   -17.6628 -16.8390 -16.8191 -16.7270 -16.7227 -16.3200 -16.3073 -15.6431
   -15.6410 -15.2578 -15.2450 -13.2466 -13.2273 -13.0137 -13.0119 -11.3900
   -11.3890 -11.2743 -10.7147 -10.7015 -10.2717 -10.2705 -10.2695 -10.2662
    -9.7309  -9.4814  -9.4690  -9.3065  -8.9454  -8.9445  -8.9134  -8.9125
    -8.9087  -8.9064  -8.7527  -8.7202  -7.9367  -7.7241  -7.7127  -7.7099
    -7.2816  -7.2657  -6.9134  -6.7588  -6.7330  -6.6066  -6.5972  -5.2564
    -5.1010  -4.7970  -4.7775  -4.5535  -4.4052  -4.1278  -4.0794  -0.9259
    -0.8762  -0.6670  -0.6618   0.3430   0.4280   0.5324   0.5699   0.6145
     0.8774   1.3698   1.4119   2.1939

          k =-0.1667 0.0722 0.0000 ( 31908 PWs)   bands (ev):

   -21.3411 -21.3347 -20.6148 -20.6095 -19.5372 -19.1879 -19.1714 -17.5859
   -17.5808 -17.1571 -17.1524 -16.9965 -16.9852 -16.8141 -16.8022 -15.2418
   -15.2412 -14.3114 -14.3003 -13.5673 -13.5647 -13.2418 -13.2249 -11.5185
   -11.5104 -11.2682 -10.8215 -10.8212 -10.6114 -10.5982  -9.7526  -9.7366
    -9.7208  -9.3865  -9.3648  -9.3080  -9.2546  -9.2520  -9.2136  -9.2122
    -8.7882  -8.7757  -8.4499  -8.4194  -7.9030  -7.9024  -7.6417  -7.6303
    -7.1883  -6.8640  -6.7798  -6.7020  -6.6471  -6.6400  -6.6362  -5.2182
    -5.0611  -4.8848  -4.8657  -4.7726  -4.7134  -4.3544  -4.3420  -0.5175
    -0.5109  -0.2776  -0.2408   0.2122   0.2645   0.5558   0.5615   0.6629
     0.9898   1.4989   1.5250   1.6903

          k =-0.1667-0.1443 0.0000 ( 31784 PWs)   bands (ev):

   -21.0747 -21.0665 -21.0610 -21.0569 -19.5324 -18.2353 -18.2310 -18.2285
   -18.2180 -17.3528 -17.3507 -17.3445 -17.3301 -16.8191 -16.8081 -14.4579
   -14.4557 -14.4478 -14.4446 -13.2449 -13.2274 -12.9222 -12.9176 -12.9098
   -12.9065 -11.2621 -10.3034 -10.2920 -10.2889 -10.2745  -9.9329  -9.9313
    -9.9131  -9.9096  -9.7318  -9.3078  -9.1328  -9.1151  -9.0769  -8.9909
    -8.6635  -8.6239  -8.3822  -8.3778  -8.3748  -8.3700  -7.0852  -7.0585
    -7.0570  -7.0509  -7.0469  -6.7718  -6.7444  -5.8780  -5.7734  -5.7448
    -5.6898  -5.1426  -4.9574  -4.9451  -4.9202  -4.4113  -4.3526  -0.2010
    -0.1503  -0.1115  -0.1039   0.4728   0.5461   0.7747   1.0720   1.0856
     1.0994   1.1153   1.1608   1.3903

          k =-0.0833 0.0722 0.0000 ( 31951 PWs)   bands (ev):

   -21.7035 -20.9740 -20.7326 -20.0145 -19.5726 -19.4953 -18.8317 -18.6006
   -18.1430 -17.4815 -16.8926 -16.8169 -16.8056 -16.6070 -16.2411 -15.1454
   -14.6558 -14.5577 -14.0415 -13.9205 -13.2432 -13.2398 -12.2265 -12.2131
   -11.9944 -11.7807 -11.5178 -11.3064 -10.7315 -10.3465  -9.7769  -9.7372
    -9.7163  -9.6866  -9.3651  -9.3046  -9.1589  -8.9899  -8.8230  -8.7730
    -8.6691  -8.6439  -8.5165  -8.4772  -8.1610  -7.8196  -7.5242  -7.3436
    -7.3333  -6.9686  -6.7742  -6.7582  -6.4343  -6.3967  -6.1486  -6.0494
    -5.7584  -5.1638  -4.7555  -4.4966  -4.4511  -3.9855  -3.7634  -1.0580
    -0.7426  -0.5581  -0.0608   0.2795   0.4378   0.5175   0.7091   1.0007
     1.4542   1.6202   1.6801   1.9221

     the Fermi energy is    -2.3704 ev

!    total energy              =    -351.25826554 Ry
     Harris-Foulkes estimate   =    -351.25826566 Ry
     estimated scf accuracy    <       0.00000027 Ry

     The total energy is the sum of the following terms:

     one-electron contribution =   -4813.31477417 Ry
     hartree contribution      =    2426.62709396 Ry
     xc contribution           =    -112.31685390 Ry
     ewald contribution        =    2147.74908912 Ry
     smearing contrib. (-TS)   =      -0.00282055 Ry

     convergence has been achieved in   5 iterations

     Forces acting on atoms (cartesian axes, Ry/au):

     atom    1 type  1   force =     0.00016432   -0.00048295   -0.00009966
     atom    2 type  1   force =     0.00010819    0.00060323    0.00238333
     atom    3 type  1   force =     0.00015506    0.00064814   -0.00062501
     atom    4 type  1   force =     0.00083681    0.00068298   -0.00433584
     atom    5 type  1   force =    -0.00011257   -0.00070929   -0.00232276
     atom    6 type  1   force =     0.00005962   -0.00127020    0.00117231
     atom    7 type  1   force =     0.00000586   -0.00010242    0.00148919
     atom    8 type  1   force =     0.00042726    0.00010714    0.00066999
     atom    9 type  1   force =    -0.00003082    0.00084845   -0.00342262
     atom   10 type  1   force =     0.00023524    0.00109588   -0.00465529
     atom   11 type  1   force =    -0.00007731   -0.00055083   -0.00793255
     atom   12 type  1   force =    -0.00001065    0.00049068   -0.00988893
     atom   13 type  1   force =    -0.00012801   -0.00082284   -0.00867548
     atom   14 type  1   force =     0.00039110   -0.00026775   -0.00457305
     atom   15 type  1   force =     0.00006353   -0.00001756   -0.00016789
     atom   16 type  1   force =    -0.00019396    0.00043667    0.00187195
     atom   17 type  1   force =     0.00005377   -0.00053680    0.00025156
     atom   18 type  1   force =    -0.00047954    0.00111176   -0.00456768
     atom   19 type  1   force =     0.00015361   -0.00041313   -0.00793584
     atom   20 type  1   force =    -0.00054892    0.00044709   -0.00431791
     atom   21 type  1   force =    -0.00001444   -0.00049833   -0.00232350
     atom   22 type  1   force =    -0.00027871   -0.00044405   -0.00450761
     atom   23 type  1   force =    -0.00018349    0.00010704    0.00019919
     atom   24 type  1   force =    -0.00064471    0.00018665    0.00088784
     atom   25 type  1   force =    -0.00073818    0.00680056    0.00984171
     atom   26 type  1   force =     0.00289129    0.00389534    0.00941588
     atom   27 type  1   force =     0.00524855   -0.00232188    0.00987620
     atom   28 type  1   force =     0.00310992   -0.00511563    0.00940122
     atom   29 type  1   force =    -0.00557371   -0.00285423    0.00984470
     atom   30 type  1   force =    -0.00487944   -0.00073692    0.00944158
     atom   31 type  2   force =     0.00023533   -0.00116374    0.00073750
     atom   32 type  2   force =    -0.00020740   -0.00032375    0.00040077
     atom   33 type  2   force =    -0.00105534    0.00058411    0.00083866
     atom   34 type  2   force =    -0.00010609    0.00017366    0.00040438
     atom   35 type  2   force =     0.00089186    0.00077512    0.00073947
     atom   36 type  2   force =     0.00023193   -0.00036217    0.00048417

     Total force =     0.035158     Total SCF correction =     0.001330

     number of scf cycles    =   2
     number of bfgs steps    =   1

     energy   old            =    -351.2570708740 Ry
     energy   new            =    -351.2582655388 Ry

     CASE: energy  _new < energy  _old

     new trust radius        =       0.0136353980 bohr
     new conv_thr            =       0.0000009889 Ry


ATOMIC_POSITIONS (angstrom)
C        1.230568482   0.000763147  -0.000090743
C        0.000152621   0.709681649   0.002304668
C        0.000285871   2.132263197  -0.000160669
C        1.230381938   2.840028298  -0.005801657
C        1.230814269   4.260576711  -0.002464255
C        0.000050372   4.969852482   0.001080055
C       -0.000039515   6.391422935   0.001169397
C        1.230041699   7.101268586   0.000786881
C        3.689840975   0.001602624  -0.002991296
C        2.460769638   0.710653302  -0.006046566
C        2.461048559   2.130940220  -0.010169604
C        3.689999316   2.840325257  -0.012039314
C        3.689983693   4.260337013  -0.010596283
C        2.460733801   4.970062983  -0.006004201
C        2.460296113   6.390474982   0.000036588
C        3.689791439   7.101907387   0.001758498
C        6.149344143   0.000967607   0.000465914
C        4.919368305   0.710793724  -0.006053139
C        4.918979965   2.130991167  -0.010173282
C        6.149651325   2.840242222  -0.005726505
C        6.149311084   4.260391568  -0.002467342
C        4.919013581   4.970072350  -0.006012017
C        4.919547178   6.390318640   0.000616851
C        6.150041951   7.101199075   0.000967427
C        4.049805011   1.490558668   3.012928424
C        2.703902998   1.852506241   3.011931378
C        2.340857319   3.203900411   3.012965962
C        3.326780423   4.188367154   3.011917787
C        4.679684624   3.826711403   3.012930441
C        5.038980298   2.481194375   3.011957296
H        4.332083215   0.444176322   3.000654438
H        1.935796389   1.086267971   3.000256069
H        1.293961672   3.482966108   3.000784735
H        3.047893422   5.236957867   3.000261321
H        5.444175331   4.594781978   3.000659563
H        6.086102496   2.198134001   3.000363177



     Writing output data file batch_graph+benzene.save/
     NEW-OLD atomic charge density approx. for the potential

     negative rho (up, down):  2.135E-04 0.000E+00

     total cpu time spent up to now is      504.7 secs

     Self-consistent Calculation

     iteration #  1     ecut=    32.00 Ry     beta= 0.50
     Davidson diagonalization with overlap
     ethr =  1.00E-06,  avg # of iterations =  3.6

     negative rho (up, down):  2.137E-04 0.000E+00

     total cpu time spent up to now is      548.5 secs

     total energy              =    -351.25947039 Ry
     Harris-Foulkes estimate   =    -351.25962584 Ry
     estimated scf accuracy    <       0.00034897 Ry

     iteration #  2     ecut=    32.00 Ry     beta= 0.50
     Davidson diagonalization with overlap
     ethr =  2.77E-07,  avg # of iterations =  2.0

     negative rho (up, down):  2.141E-04 0.000E+00

     total cpu time spent up to now is      579.2 secs

     total energy              =    -351.25953133 Ry
     Harris-Foulkes estimate   =    -351.25954035 Ry
     estimated scf accuracy    <       0.00003990 Ry

     iteration #  3     ecut=    32.00 Ry     beta= 0.50
     Davidson diagonalization with overlap
     ethr =  3.17E-08,  avg # of iterations =  2.0

     negative rho (up, down):  2.146E-04 0.000E+00

     total cpu time spent up to now is      608.7 secs

     total energy              =    -351.25953760 Ry
     Harris-Foulkes estimate   =    -351.25953796 Ry
     estimated scf accuracy    <       0.00000788 Ry

     iteration #  4     ecut=    32.00 Ry     beta= 0.50
     Davidson diagonalization with overlap
     ethr =  6.26E-09,  avg # of iterations =  2.0

     negative rho (up, down):  2.151E-04 0.000E+00

     total cpu time spent up to now is      637.8 secs

     total energy              =    -351.25953872 Ry
     Harris-Foulkes estimate   =    -351.25953875 Ry
     estimated scf accuracy    <       0.00000124 Ry

     iteration #  5     ecut=    32.00 Ry     beta= 0.50
     Davidson diagonalization with overlap
     ethr =  9.80E-10,  avg # of iterations =  2.2

     negative rho (up, down):  2.139E-04 0.000E+00

     total cpu time spent up to now is      666.8 secs

     End of self-consistent calculation

          k = 0.0000 0.0000 0.0000 ( 31971 PWs)   bands (ev):

   -21.9208 -20.4672 -20.4631 -19.9935 -19.9837 -19.5325 -18.5786 -18.5761
   -18.5719 -18.5710 -16.8225 -16.8155 -16.7304 -15.6400 -15.0717 -15.0671
   -15.0659 -15.0611 -13.2739 -13.2489 -13.0931 -13.0906 -13.0887 -13.0849
   -12.9493 -12.9476 -11.3568 -10.2828 -10.2767 -10.0141  -9.9240  -9.9215
    -9.7206  -9.3064  -9.0940  -9.0926  -9.0853  -9.0846  -8.9523  -8.9076
    -8.9053  -8.7667  -8.6700  -8.3888  -8.2205  -7.8265  -7.7081  -7.6007
    -7.5985  -7.0378  -6.7945  -6.7872  -6.2158  -6.2039  -6.1261  -6.0754
    -5.6312  -5.6151  -4.8003  -4.4800  -4.4632  -2.3817  -2.3736  -2.3719
    -2.3685  -0.6601  -0.0401   0.4091   0.5132   0.6958   1.3483   1.3532
     1.3706   1.3914   1.5829   1.9879

          k = 0.0000 0.0722 0.0000 ( 31929 PWs)   bands (ev):

   -21.8290 -21.0983 -19.9056 -19.8941 -19.6678 -19.5268 -19.1842 -19.1798
   -17.8104 -17.8082 -17.5950 -16.8157 -16.8125 -15.9385 -15.9379 -14.6515
   -14.5386 -14.5374 -13.6931 -13.6910 -13.2632 -13.2414 -12.4298 -12.4280
   -12.3678 -12.3646 -11.5567 -11.3486 -10.7409 -10.7358 -10.1314 -10.1311
    -9.9141  -9.7217  -9.3054  -9.1129  -8.8617  -8.6739  -8.6681  -8.5969
    -8.5926  -8.4252  -8.4228  -8.3460  -8.1634  -7.7811  -7.6155  -7.4232
    -7.0923  -6.9544  -6.9055  -6.7905  -6.7014  -6.6615  -5.9804  -5.8218
    -5.4047  -5.3711  -5.2694  -4.4777  -4.4682  -3.3839  -3.3709  -1.4018
    -1.3871  -0.0286   0.0997   0.3229   0.4327   0.5433   0.6028   0.8253
     1.3138   1.7910   1.8623   2.2059

          k = 0.0000-0.1443 0.0000 ( 31940 PWs)   bands (ev):

   -21.5577 -21.5507 -19.6693 -19.6342 -19.6309 -19.6221 -19.4959 -18.6928
   -18.6853 -16.9384 -16.9250 -16.9105 -16.9102 -16.7990 -16.7872 -14.1617
   -14.1595 -14.1543 -14.1529 -13.2696 -13.2416 -13.1595 -13.1497 -11.5568
   -11.5526 -11.5498 -11.5474 -11.3482 -11.3305 -11.3276 -11.3265 -11.3227
    -9.7237  -9.6200  -9.6005  -9.3048  -8.7012  -8.6663  -8.5984  -8.5868
    -8.2911  -8.2878  -8.2812  -8.2775  -7.6247  -7.3393  -7.3330  -7.3198
    -6.9788  -6.9549  -6.9259  -6.7612  -6.7353  -6.3459  -6.3214  -6.3099
    -6.2273  -4.7374  -4.6685  -4.4015  -4.3879  -4.2353  -4.1664  -0.5103
    -0.4570  -0.4503  -0.4397   0.3420   0.4730   0.5120   0.8803   1.1955
     1.2570   1.4262   1.4703   2.0681

          k = 0.0833 0.0000 0.0000 ( 31951 PWs)   bands (ev):

   -21.7984 -20.8265 -20.3477 -20.3432 -19.5514 -19.3922 -19.3753 -18.9225
   -17.5675 -17.5670 -16.8248 -16.8174 -16.6298 -16.2804 -15.7965 -15.5391
   -14.8890 -14.6331 -14.6318 -14.1403 -13.2493 -13.2445 -12.4130 -12.1737
   -11.7214 -11.4989 -11.4982 -11.3200 -10.1857  -9.9495  -9.9472  -9.8791
    -9.7274  -9.4609  -9.3064  -9.1651  -9.1640  -8.9889  -8.9876  -8.8775
    -8.7596  -8.7422  -8.6043  -8.2265  -8.1020  -8.0555  -8.0532  -7.6667
    -7.2865  -7.0813  -6.8739  -6.7614  -6.7327  -6.4565  -6.1041  -5.8757
    -5.2785  -5.2508  -4.6859  -4.5062  -4.4277  -3.6498  -3.3934  -1.4184
    -1.0933  -0.7044  -0.0503  -0.0328   0.1642   0.4898   0.5433   0.8699
     1.5244   1.7424   2.1517   2.1940

          k = 0.0833 0.0722 0.0000 ( 31951 PWs)   bands (ev):

   -21.7068 -20.9774 -20.7359 -20.0177 -19.5747 -19.4995 -18.8352 -18.6042
   -18.1466 -17.4851 -16.8960 -16.8199 -16.8081 -16.6113 -16.2444 -15.1496
   -14.6603 -14.5607 -14.0441 -13.9246 -13.2472 -13.2439 -12.2312 -12.2169
   -11.9987 -11.7838 -11.5208 -11.3135 -10.7355 -10.3502  -9.7785  -9.7366
    -9.7270  -9.6914  -9.3687  -9.3053  -9.1635  -8.9911  -8.8274  -8.7770
    -8.6712  -8.6478  -8.5159  -8.4802  -8.1646  -7.8147  -7.5269  -7.3490
    -7.3415  -6.9897  -6.7917  -6.7471  -6.4385  -6.3835  -6.1500  -6.0528
    -5.7605  -5.1695  -4.7582  -4.4976  -4.4565  -3.9928  -3.7664  -1.0650
    -0.7424  -0.5664  -0.0732   0.2757   0.4493   0.5224   0.7161   0.9981
     1.4433   1.5883   1.6756   1.9217

          k = 0.0833-0.1443 0.0000 ( 31876 PWs)   bands (ev):

   -21.4359 -21.4290 -20.4680 -20.4625 -19.5371 -18.5808 -18.5779 -18.5722
   -18.5669 -17.6715 -17.6655 -16.8258 -16.8120 -16.3188 -16.3111 -15.2613
   -15.2596 -13.2525 -13.2514 -13.0938 -13.0890 -13.0862 -13.0810 -13.0142
   -13.0101 -11.4014 -11.3944 -11.3059 -10.7100 -10.7057  -9.9310  -9.9264
    -9.7296  -9.4906  -9.4574  -9.3063  -9.0988  -9.0923  -9.0892  -9.0839
    -8.7781  -8.7069  -8.3117  -8.2631  -7.5982  -7.5868  -7.2774  -7.2616
    -7.1171  -6.7857  -6.7729  -6.6172  -6.6115  -6.2166  -6.1629  -6.1450
    -6.1044  -5.2081  -5.1338  -4.5457  -4.4264  -4.1331  -4.0716  -0.9194
    -0.9028   0.3425   0.3913   0.4757   0.5213   0.5960   1.0604   1.3465
     1.3596   1.3691   1.3751   1.4018

          k =-0.1667 0.0000 0.0000 ( 31854 PWs)   bands (ev):

   -21.4342 -21.4308 -19.9948 -19.9895 -19.9861 -19.9834 -19.5220 -17.6709
   -17.6665 -16.8421 -16.8208 -16.7312 -16.7263 -16.3226 -16.3133 -15.6470
   -15.6456 -15.2577 -15.2497 -13.2509 -13.2316 -13.0184 -13.0166 -11.3927
   -11.3913 -11.2818 -10.7197 -10.7053 -10.2752 -10.2747 -10.2703 -10.2699
    -9.7384  -9.4825  -9.4710  -9.3067  -8.9488  -8.9466  -8.9203  -8.9171
    -8.9125  -8.9096  -8.7573  -8.7233  -7.9337  -7.7256  -7.7152  -7.7132
    -7.2885  -7.2701  -6.9269  -6.7600  -6.7355  -6.6065  -6.6011  -5.2541
    -5.1043  -4.7976  -4.7782  -4.5562  -4.4132  -4.1330  -4.0865  -0.9260
    -0.8801  -0.6712  -0.6670   0.3431   0.4257   0.5313   0.5702   0.6107
     0.8802   1.3677   1.4101   2.1954

          k =-0.1667 0.0722 0.0000 ( 31908 PWs)   bands (ev):

   -21.3429 -21.3395 -20.6167 -20.6144 -19.5396 -19.1897 -19.1770 -17.5890
   -17.5845 -17.1589 -17.1574 -16.9989 -16.9891 -16.8189 -16.8050 -15.2459
   -15.2454 -14.3120 -14.3053 -13.5714 -13.5689 -13.2465 -13.2293 -11.5191
   -11.5154 -11.2758 -10.8244 -10.8241 -10.6165 -10.6021  -9.7582  -9.7413
    -9.7273  -9.3875  -9.3671  -9.3082  -9.2594  -9.2539  -9.2172  -9.2152
    -8.7905  -8.7798  -8.4506  -8.4216  -7.9085  -7.9046  -7.6478  -7.6339
    -7.1928  -6.8660  -6.7831  -6.7046  -6.6522  -6.6419  -6.6409  -5.2155
    -5.0638  -4.8838  -4.8665  -4.7767  -4.7167  -4.3642  -4.3509  -0.5218
    -0.5151  -0.2782  -0.2438   0.2106   0.2610   0.5521   0.5610   0.6642
     0.9925   1.4962   1.5230   1.6939

          k =-0.1667-0.1443 0.0000 ( 31784 PWs)   bands (ev):

   -21.0744 -21.0685 -21.0650 -21.0647 -19.5351 -18.2373 -18.2338 -18.2324
   -18.2233 -17.3530 -17.3529 -17.3480 -17.3376 -16.8237 -16.8105 -14.4611
   -14.4591 -14.4526 -14.4495 -13.2494 -13.2315 -12.9219 -12.9192 -12.9152
   -12.9115 -11.2697 -10.3053 -10.2976 -10.2924 -10.2820  -9.9343  -9.9339
    -9.9161  -9.9150  -9.7393  -9.3080  -9.1329  -9.1191  -9.0790  -8.9912
    -8.6676  -8.6260  -8.3883  -8.3825  -8.3775  -8.3729  -7.0943  -7.0629
    -7.0608  -7.0521  -7.0511  -6.7733  -6.7464  -5.8771  -5.7752  -5.7473
    -5.6961  -5.1402  -4.9578  -4.9468  -4.9259  -4.4188  -4.3625  -0.2023
    -0.1540  -0.1157  -0.1094   0.4719   0.5480   0.7760   1.0698   1.0824
     1.0956   1.1117   1.1624   1.3931

          k =-0.0833 0.0722 0.0000 ( 31951 PWs)   bands (ev):

   -21.7068 -20.9774 -20.7359 -20.0177 -19.5746 -19.4996 -18.8352 -18.6042
   -18.1466 -17.4850 -16.8951 -16.8206 -16.8087 -16.6111 -16.2445 -15.1495
   -14.6601 -14.5605 -14.0444 -13.9245 -13.2472 -13.2446 -12.2309 -12.2166
   -11.9988 -11.7838 -11.5205 -11.3137 -10.7355 -10.3503  -9.7785  -9.7414
    -9.7215  -9.6907  -9.3695  -9.3050  -9.1636  -8.9917  -8.8267  -8.7761
    -8.6711  -8.6489  -8.5193  -8.4797  -8.1645  -7.8200  -7.5268  -7.3487
    -7.3353  -6.9779  -6.7764  -6.7595  -6.4386  -6.3998  -6.1515  -6.0528
    -5.7609  -5.1658  -4.7552  -4.5012  -4.4568  -3.9919  -3.7675  -1.0622
    -0.7448  -0.5624  -0.0625   0.2823   0.4394   0.5169   0.7039   0.9984
     1.4567   1.6218   1.6772   1.9191

     the Fermi energy is    -2.3739 ev

!    total energy              =    -351.25953885 Ry
     Harris-Foulkes estimate   =    -351.25953900 Ry
     estimated scf accuracy    <       0.00000028 Ry

     The total energy is the sum of the following terms:

     one-electron contribution =   -4809.86726810 Ry
     hartree contribution      =    2424.89083006 Ry
     xc contribution           =    -112.32198204 Ry
     ewald contribution        =    2146.04170130 Ry
     smearing contrib. (-TS)   =      -0.00282008 Ry

     convergence has been achieved in   5 iterations

     Forces acting on atoms (cartesian axes, Ry/au):

     atom    1 type  1   force =    -0.00009537   -0.00081681   -0.00010727
     atom    2 type  1   force =    -0.00001241    0.00200084    0.00183110
     atom    3 type  1   force =    -0.00009814   -0.00136791   -0.00143160
     atom    4 type  1   force =     0.00078348    0.00111279   -0.00383653
     atom    5 type  1   force =    -0.00042856   -0.00061643   -0.00272951
     atom    6 type  1   force =     0.00000979   -0.00062454    0.00106117
     atom    7 type  1   force =     0.00002451   -0.00069261    0.00217604
     atom    8 type  1   force =     0.00040021    0.00013187    0.00068224
     atom    9 type  1   force =     0.00018631   -0.00104016   -0.00323133
     atom   10 type  1   force =    -0.00042040    0.00094679   -0.00429782
     atom   11 type  1   force =    -0.00073868   -0.00063956   -0.00733781
     atom   12 type  1   force =    -0.00001267    0.00047984   -0.00890018
     atom   13 type  1   force =    -0.00014293   -0.00044852   -0.00730996
     atom   14 type  1   force =    -0.00013329    0.00032356   -0.00411249
     atom   15 type  1   force =     0.00007624    0.00050245   -0.00043078
     atom   16 type  1   force =    -0.00004898    0.00032978    0.00151659
     atom   17 type  1   force =     0.00039999   -0.00096268    0.00009960
     atom   18 type  1   force =     0.00005594    0.00085553   -0.00411691
     atom   19 type  1   force =     0.00085786   -0.00052084   -0.00733475
     atom   20 type  1   force =    -0.00034276    0.00070195   -0.00384873
     atom   21 type  1   force =     0.00026015   -0.00029438   -0.00272161
     atom   22 type  1   force =     0.00037357    0.00015463   -0.00397949
     atom   23 type  1   force =    -0.00024612    0.00076174   -0.00021247
     atom   24 type  1   force =    -0.00076511    0.00028539    0.00098595
     atom   25 type  1   force =     0.00049396    0.00851948    0.00865723
     atom   26 type  1   force =     0.00242931    0.00557621    0.00874688
     atom   27 type  1   force =     0.00665339   -0.00436477    0.00870137
     atom   28 type  1   force =     0.00492786   -0.00522794    0.00873024
     atom   29 type  1   force =    -0.00803901   -0.00270694    0.00866235
     atom   30 type  1   force =    -0.00639445   -0.00210138    0.00878088
     atom   31 type  2   force =     0.00065223   -0.00289569    0.00102123
     atom   32 type  2   force =    -0.00145041   -0.00156540    0.00068772
     atom   33 type  2   force =    -0.00311125    0.00115210    0.00111855
     atom   34 type  2   force =    -0.00052346    0.00175542    0.00069079
     atom   35 type  2   force =     0.00228149    0.00212882    0.00102455
     atom   36 type  2   force =     0.00213770   -0.00083263    0.00076476

     Total force =     0.035254     Total SCF correction =     0.001358

     number of scf cycles    =   3
     number of bfgs steps    =   2

     energy   old            =    -351.2582655388 Ry
     energy   new            =    -351.2595388501 Ry

     CASE: energy  _new < energy  _old

     new trust radius        =       0.0204530970 bohr
     new conv_thr            =       0.0000008900 Ry


ATOMIC_POSITIONS (angstrom)
C        1.230834397   0.000982172  -0.000184253
C        0.000200679   0.710483082   0.004108213
C        0.000346048   2.132297175  -0.000995706
C        1.230801847   2.840089347  -0.010635812
C        1.231162207   4.260296236  -0.005067622
C        0.000064016   4.969215913   0.002043958
C       -0.000053913   6.391088318   0.002844390
C        1.230143125   7.101206066   0.001517799
C        3.689874484   0.001595636  -0.005782486
C        2.460912025   0.711154848  -0.011231660
C        2.461326516   2.131141483  -0.018916762
C        3.689995093   2.840245443  -0.022293590
C        3.689933806   4.260059675  -0.019256645
C        2.460977778   4.969754103  -0.011065972
C        2.460537190   6.390263445  -0.000162384
C        3.689701656   7.102290359   0.003193746
C        6.149122547   0.001259408   0.000752656
C        4.919189002   0.711324586  -0.011156968
C        4.918770236   2.131245352  -0.018919243
C        6.149427520   2.840284479  -0.010523263
C        6.148998788   4.260099579  -0.005066888
C        4.918699661   4.969738474  -0.011016772
C        4.919128980   6.390115691   0.000815691
C        6.149849449   7.101155702   0.001939769
C        4.049648127   1.491269406   3.023686794
C        2.704182689   1.853224124   3.022237780
C        2.341492807   3.203595820   3.023766309
C        3.327129564   4.187553000   3.022209631
C        4.679363680   3.826129892   3.023692479
C        5.038223175   2.481311040   3.022294265
H        4.331520692   0.446014156   3.001498627
H        1.937191885   1.087534004   3.000737574
H        1.295609615   3.482913501   3.001743633
H        3.048465672   5.234807591   3.000747073
H        5.443009825   4.593635923   3.001508933
H        6.084219132   2.198284593   3.000936706



     Writing output data file batch_graph+benzene.save/
     NEW-OLD atomic charge density approx. for the potential

     negative rho (up, down):  2.131E-04 0.000E+00

     total cpu time spent up to now is      681.7 secs

     Self-consistent Calculation

     iteration #  1     ecut=    32.00 Ry     beta= 0.50
     Davidson diagonalization with overlap
     ethr =  1.00E-06,  avg # of iterations =  4.0

     negative rho (up, down):  2.132E-04 0.000E+00

     total cpu time spent up to now is      731.8 secs

     total energy              =    -351.26112852 Ry
     Harris-Foulkes estimate   =    -351.26148170 Ry
     estimated scf accuracy    <       0.00078989 Ry

     iteration #  2     ecut=    32.00 Ry     beta= 0.50
     Davidson diagonalization with overlap
     ethr =  6.27E-07,  avg # of iterations =  2.0

     negative rho (up, down):  2.142E-04 0.000E+00

     total cpu time spent up to now is      761.9 secs

     total energy              =    -351.26126509 Ry
     Harris-Foulkes estimate   =    -351.26129019 Ry
     estimated scf accuracy    <       0.00009848 Ry

     iteration #  3     ecut=    32.00 Ry     beta= 0.50
     Davidson diagonalization with overlap
     ethr =  7.82E-08,  avg # of iterations =  2.0

     negative rho (up, down):  2.136E-04 0.000E+00

     total cpu time spent up to now is      792.0 secs

     total energy              =    -351.26128029 Ry
     Harris-Foulkes estimate   =    -351.26128405 Ry
     estimated scf accuracy    <       0.00002312 Ry

     iteration #  4     ecut=    32.00 Ry     beta= 0.50
     Davidson diagonalization with overlap
     ethr =  1.83E-08,  avg # of iterations =  2.0

     negative rho (up, down):  2.149E-04 0.000E+00

     total cpu time spent up to now is      821.0 secs

     total energy              =    -351.26128387 Ry
     Harris-Foulkes estimate   =    -351.26128523 Ry
     estimated scf accuracy    <       0.00000649 Ry

     iteration #  5     ecut=    32.00 Ry     beta= 0.50
     Davidson diagonalization with overlap
     ethr =  5.15E-09,  avg # of iterations =  2.1

     negative rho (up, down):  2.134E-04 0.000E+00

     total cpu time spent up to now is      849.2 secs

     End of self-consistent calculation

          k = 0.0000 0.0000 0.0000 ( 31971 PWs)   bands (ev):

   -21.9256 -20.4718 -20.4680 -19.9979 -19.9885 -19.5414 -18.5837 -18.5811
   -18.5767 -18.5764 -16.8260 -16.8212 -16.7357 -15.6462 -15.0763 -15.0719
   -15.0708 -15.0676 -13.2769 -13.2522 -13.0986 -13.0963 -13.0932 -13.0898
   -12.9546 -12.9531 -11.3642 -10.2866 -10.2814 -10.0167  -9.9296  -9.9279
    -9.7218  -9.3101  -9.0979  -9.0976  -9.0925  -9.0914  -8.9568  -8.9137
    -8.9121  -8.7702  -8.6744  -8.3875  -8.2232  -7.8285  -7.7111  -7.6044
    -7.6031  -7.0545  -6.7931  -6.7890  -6.2168  -6.2057  -6.1309  -6.0853
    -5.6347  -5.6224  -4.8016  -4.4893  -4.4718  -2.3856  -2.3786  -2.3768
    -2.3751  -0.6673  -0.0373   0.4116   0.5163   0.6928   1.3431   1.3472
     1.3651   1.3849   1.5830   1.9901

          k = 0.0000 0.0722 0.0000 ( 31929 PWs)   bands (ev):

   -21.8338 -21.1032 -19.9099 -19.8990 -19.6723 -19.5357 -19.1891 -19.1856
   -17.8156 -17.8130 -17.6000 -16.8214 -16.8168 -15.9441 -15.9429 -14.6572
   -14.5435 -14.5427 -13.6978 -13.6960 -13.2668 -13.2455 -12.4351 -12.4333
   -12.3726 -12.3699 -11.5627 -11.3561 -10.7451 -10.7408 -10.1372 -10.1364
    -9.9163  -9.7229  -9.3092  -9.1151  -8.8661  -8.6764  -8.6718  -8.6028
    -8.5994  -8.4306  -8.4291  -8.3528  -8.1678  -7.7796  -7.6182  -7.4271
    -7.1007  -6.9585  -6.9079  -6.7916  -6.7030  -6.6756  -5.9875  -5.8256
    -5.4048  -5.3733  -5.2746  -4.4869  -4.4767  -3.3892  -3.3776  -1.4063
    -1.3922  -0.0334   0.1022   0.3246   0.4300   0.5433   0.5952   0.8222
     1.3168   1.7906   1.8603   2.2054

          k = 0.0000-0.1443 0.0000 ( 31940 PWs)   bands (ev):

   -21.5620 -21.5562 -19.6725 -19.6387 -19.6349 -19.6279 -19.5065 -18.6987
   -18.6896 -16.9426 -16.9282 -16.9159 -16.9145 -16.8059 -16.7939 -14.1653
   -14.1635 -14.1604 -14.1592 -13.2726 -13.2457 -13.1657 -13.1558 -11.5612
   -11.5577 -11.5545 -11.5524 -11.3540 -11.3349 -11.3341 -11.3326 -11.3293
    -9.7248  -9.6201  -9.6047  -9.3086  -8.7036  -8.6701  -8.6012  -8.5934
    -8.2962  -8.2940  -8.2870  -8.2843  -7.6224  -7.3407  -7.3371  -7.3240
    -6.9867  -6.9620  -6.9377  -6.7644  -6.7383  -6.3480  -6.3248  -6.3144
    -6.2341  -4.7355  -4.6686  -4.4065  -4.3923  -4.2469  -4.1819  -0.5114
    -0.4615  -0.4560  -0.4458   0.3433   0.4738   0.5138   0.8825   1.1922
     1.2573   1.4208   1.4621   2.0678

          k = 0.0833 0.0000 0.0000 ( 31951 PWs)   bands (ev):

   -21.8033 -20.8313 -20.3524 -20.3482 -19.5583 -19.3971 -19.3821 -18.9277
   -17.5726 -17.5719 -16.8304 -16.8212 -16.6348 -16.2858 -15.8012 -15.5454
   -14.8953 -14.6378 -14.6368 -14.1448 -13.2533 -13.2482 -12.4189 -12.1782
   -11.7257 -11.5039 -11.5035 -11.3277 -10.1921  -9.9559  -9.9535  -9.8809
    -9.7285  -9.4654  -9.3101  -9.1705  -9.1696  -8.9946  -8.9935  -8.8804
    -8.7635  -8.7455  -8.6060  -8.2273  -8.1049  -8.0595  -8.0579  -7.6736
    -7.2911  -7.0844  -6.8842  -6.7651  -6.7331  -6.4639  -6.1078  -5.8829
    -5.2807  -5.2541  -4.6867  -4.5145  -4.4368  -3.6571  -3.3983  -1.4244
    -1.0972  -0.7114  -0.0539  -0.0364   0.1661   0.4903   0.5429   0.8669
     1.5260   1.7432   2.1496   2.1943

          k = 0.0833 0.0722 0.0000 ( 31951 PWs)   bands (ev):

   -21.7116 -20.9822 -20.7407 -20.0224 -19.5797 -19.5080 -18.8403 -18.6093
   -18.1516 -17.4900 -16.9001 -16.8255 -16.8131 -16.6170 -16.2498 -15.1544
   -14.6649 -14.5665 -14.0500 -13.9294 -13.2513 -13.2476 -12.2359 -12.2222
   -12.0033 -11.7895 -11.5268 -11.3212 -10.7405 -10.3554  -9.7808  -9.7411
    -9.7296  -9.6968  -9.3731  -9.3092  -9.1681  -8.9934  -8.8302  -8.7826
    -8.6732  -8.6525  -8.5188  -8.4866  -8.1704  -7.8164  -7.5333  -7.3533
    -7.3442  -7.0043  -6.7934  -6.7471  -6.4438  -6.3883  -6.1538  -6.0585
    -5.7648  -5.1712  -4.7593  -4.5050  -4.4654  -4.0007  -3.7739  -1.0690
    -0.7475  -0.5711  -0.0779   0.2779   0.4517   0.5220   0.7095   0.9950
     1.4460   1.5900   1.6710   1.9180

          k = 0.0833-0.1443 0.0000 ( 31876 PWs)   bands (ev):

   -21.4401 -21.4344 -20.4722 -20.4679 -19.5455 -18.5851 -18.5834 -18.5774
   -18.5722 -17.6773 -17.6697 -16.8313 -16.8164 -16.3233 -16.3177 -15.2668
   -15.2634 -13.2557 -13.2549 -13.0985 -13.0948 -13.0919 -13.0870 -13.0190
   -13.0169 -11.4050 -11.4003 -11.3137 -10.7147 -10.7124  -9.9357  -9.9314
    -9.7307  -9.4905  -9.4616  -9.3100  -9.1017  -9.0971  -9.0955  -9.0904
    -8.7816  -8.7095  -8.3116  -8.2671  -7.6041  -7.5928  -7.2842  -7.2673
    -7.1312  -6.7854  -6.7736  -6.6207  -6.6174  -6.2176  -6.1668  -6.1497
    -6.1108  -5.2088  -5.1371  -4.5509  -4.4374  -4.1383  -4.0823  -0.9252
    -0.9061   0.3454   0.3919   0.4737   0.5212   0.5907   1.0620   1.3422
     1.3563   1.3628   1.3688   1.3962

          k =-0.1667 0.0000 0.0000 ( 31854 PWs)   bands (ev):

   -21.4378 -21.4368 -20.0003 -19.9927 -19.9900 -19.9895 -19.5316 -17.6757
   -17.6716 -16.8469 -16.8243 -16.7369 -16.7326 -16.3254 -16.3201 -15.6517
   -15.6504 -15.2628 -15.2572 -13.2549 -13.2353 -13.0229 -13.0212 -11.3988
   -11.3975 -11.2897 -10.7244 -10.7097 -10.2814 -10.2795 -10.2772 -10.2756
    -9.7393  -9.4832  -9.4744  -9.3103  -8.9537  -8.9522  -8.9260  -8.9225
    -8.9166  -8.9138  -8.7608  -8.7266  -7.9318  -7.7297  -7.7178  -7.7156
    -7.2921  -7.2743  -6.9487  -6.7616  -6.7348  -6.6131  -6.6086  -5.2522
    -5.1096  -4.8005  -4.7805  -4.5605  -4.4260  -4.1376  -4.0950  -0.9316
    -0.8875  -0.6758  -0.6725   0.3457   0.4234   0.5309   0.5694   0.6067
     0.8819   1.3646   1.4078   2.1964

          k =-0.1667 0.0722 0.0000 ( 31908 PWs)   bands (ev):

   -21.3465 -21.3456 -20.6206 -20.6201 -19.5477 -19.1932 -19.1841 -17.5937
   -17.5896 -17.1635 -17.1622 -17.0032 -16.9942 -16.8257 -16.8100 -15.2506
   -15.2502 -14.3165 -14.3125 -13.5759 -13.5737 -13.2509 -13.2330 -11.5240
   -11.5224 -11.2838 -10.8303 -10.8300 -10.6212 -10.6065  -9.7611  -9.7449
    -9.7306  -9.3879  -9.3709  -9.3117  -9.2652  -9.2589  -9.2229  -9.2212
    -8.7929  -8.7832  -8.4518  -8.4248  -7.9146  -7.9091  -7.6522  -7.6386
    -7.2015  -6.8681  -6.7884  -6.7067  -6.6595  -6.6480  -6.6473  -5.2131
    -5.0684  -4.8831  -4.8693  -4.7820  -4.7201  -4.3794  -4.3636  -0.5263
    -0.5197  -0.2829  -0.2497   0.2104   0.2571   0.5473   0.5618   0.6651
     0.9943   1.4925   1.5205   1.6981

          k =-0.1667-0.1443 0.0000 ( 31784 PWs)   bands (ev):

   -21.0770 -21.0744 -21.0710 -21.0695 -19.5436 -18.2418 -18.2406 -18.2350
   -18.2296 -17.3574 -17.3573 -17.3531 -17.3434 -16.8301 -16.8150 -14.4659
   -14.4647 -14.4565 -14.4543 -13.2535 -13.2349 -12.9264 -12.9241 -12.9225
   -12.9188 -11.2777 -10.3084 -10.3037 -10.2954 -10.2876  -9.9410  -9.9395
    -9.9219  -9.9198  -9.7405  -9.3117  -9.1295  -9.1232  -9.0838  -8.9943
    -8.6703  -8.6287  -8.3927  -8.3883  -8.3816  -8.3791  -7.1104  -7.0697
    -7.0658  -7.0580  -7.0565  -6.7735  -6.7467  -5.8758  -5.7760  -5.7518
    -5.7033  -5.1376  -4.9631  -4.9510  -4.9308  -4.4302  -4.3781  -0.2037
    -0.1598  -0.1184  -0.1136   0.4716   0.5510   0.7768   1.0643   1.0745
     1.0902   1.1046   1.1631   1.3961

          k =-0.0833 0.0722 0.0000 ( 31951 PWs)   bands (ev):

   -21.7116 -20.9822 -20.7407 -20.0224 -19.5796 -19.5081 -18.8403 -18.6093
   -18.1516 -17.4899 -16.8991 -16.8262 -16.8137 -16.6167 -16.2500 -15.1543
   -14.6648 -14.5663 -14.0502 -13.9294 -13.2514 -13.2482 -12.2356 -12.2220
   -12.0035 -11.7894 -11.5265 -11.3215 -10.7405 -10.3554  -9.7808  -9.7450
    -9.7253  -9.6959  -9.3738  -9.3089  -9.1682  -8.9941  -8.8294  -8.7819
    -8.6731  -8.6534  -8.5224  -8.4861  -8.1703  -7.8216  -7.5331  -7.3530
    -7.3382  -6.9932  -6.7756  -6.7611  -6.4440  -6.4044  -6.1555  -6.0586
    -5.7650  -5.1676  -4.7563  -4.5083  -4.4659  -3.9998  -3.7749  -1.0664
    -0.7498  -0.5672  -0.0681   0.2844   0.4419   0.5180   0.6976   0.9953
     1.4591   1.6229   1.6722   1.9154

     the Fermi energy is    -2.3790 ev

!    total energy              =    -351.26128488 Ry
     Harris-Foulkes estimate   =    -351.26128534 Ry
     estimated scf accuracy    <       0.00000086 Ry

     The total energy is the sum of the following terms:

     one-electron contribution =   -4804.54800528 Ry
     hartree contribution      =    2422.21056984 Ry
     xc contribution           =    -112.32646088 Ry
     ewald contribution        =    2143.40543181 Ry
     smearing contrib. (-TS)   =      -0.00282037 Ry

     convergence has been achieved in   5 iterations

     Forces acting on atoms (cartesian axes, Ry/au):

     atom    1 type  1   force =    -0.00056178   -0.00069168   -0.00004810
     atom    2 type  1   force =    -0.00012526    0.00083597    0.00051076
     atom    3 type  1   force =    -0.00003266   -0.00075851   -0.00244811
     atom    4 type  1   force =     0.00027071    0.00084864   -0.00323273
     atom    5 type  1   force =    -0.00088258   -0.00033992   -0.00295652
     atom    6 type  1   force =    -0.00004814    0.00054455    0.00047683
     atom    7 type  1   force =    -0.00001324   -0.00092034    0.00199711
     atom    8 type  1   force =     0.00035287    0.00013298    0.00091811
     atom    9 type  1   force =     0.00011430   -0.00072811   -0.00286156
     atom   10 type  1   force =    -0.00045573   -0.00002020   -0.00358552
     atom   11 type  1   force =    -0.00113431   -0.00083730   -0.00627843
     atom   12 type  1   force =     0.00004860    0.00082436   -0.00817669
     atom   13 type  1   force =    -0.00008806   -0.00029226   -0.00630373
     atom   14 type  1   force =    -0.00034145    0.00084331   -0.00327757
     atom   15 type  1   force =    -0.00037756    0.00085351   -0.00062718
     atom   16 type  1   force =     0.00012378   -0.00071621    0.00023873
     atom   17 type  1   force =     0.00078141   -0.00095033    0.00000601
     atom   18 type  1   force =     0.00027688   -0.00006937   -0.00334161
     atom   19 type  1   force =     0.00123116   -0.00075702   -0.00625677
     atom   20 type  1   force =    -0.00008356    0.00047170   -0.00325914
     atom   21 type  1   force =     0.00066616    0.00003291   -0.00292696
     atom   22 type  1   force =     0.00062562    0.00068351   -0.00310369
     atom   23 type  1   force =     0.00035004    0.00108487   -0.00056756
     atom   24 type  1   force =    -0.00070786    0.00029158    0.00127886
     atom   25 type  1   force =     0.00024090    0.00870822    0.00724315
     atom   26 type  1   force =     0.00266789    0.00504050    0.00779369
     atom   27 type  1   force =     0.00635477   -0.00390879    0.00727622
     atom   28 type  1   force =     0.00506141   -0.00529648    0.00777907
     atom   29 type  1   force =    -0.00826469   -0.00223265    0.00724338
     atom   30 type  1   force =    -0.00603517   -0.00245054    0.00781555
     atom   31 type  2   force =     0.00100240   -0.00422448    0.00157182
     atom   32 type  2   force =    -0.00247164   -0.00247821    0.00126764
     atom   33 type  2   force =    -0.00415203    0.00137820    0.00166260
     atom   34 type  2   force =    -0.00091265    0.00330623    0.00126303
     atom   35 type  2   force =     0.00312668    0.00291161    0.00157267
     atom   36 type  2   force =     0.00339281   -0.00112020    0.00133665

     Total force =     0.032972     Total SCF correction =     0.002555

     number of scf cycles    =   4
     number of bfgs steps    =   3

     energy   old            =    -351.2595388501 Ry
     energy   new            =    -351.2612848772 Ry

     CASE: energy  _new < energy  _old

     new trust radius        =       0.0306796455 bohr
     new conv_thr            =       0.0000008708 Ry


ATOMIC_POSITIONS (angstrom)
C        1.230862583   0.001424590  -0.000284936
C        0.000183395   0.710777339   0.005908795
C        0.000501695   2.132888704  -0.003208909
C        1.231052885   2.839978568  -0.017918060
C        1.231324103   4.260068198  -0.009461356
C        0.000037724   4.969170387   0.003107393
C       -0.000108921   6.390358820   0.005393406
C        1.230275086   7.101110443   0.002898993
C        3.689865430   0.001873093  -0.009993239
C        2.461114163   0.711154079  -0.018987449
C        2.461427923   2.131277890  -0.032124342
C        3.690040491   2.840425995  -0.038235455
C        3.689898053   4.259730902  -0.032390974
C        2.461197775   4.969700599  -0.018518685
C        2.460534096   6.390227000  -0.000651092
C        3.689701593   7.102016268   0.004431796
C        6.149097888   0.001719658   0.001135030
C        4.919080424   0.711406790  -0.018727380
C        4.918760223   2.131436633  -0.032109101
C        6.149279006   2.840166576  -0.017757751
C        6.148849161   4.259902221  -0.009436038
C        4.918408983   4.969648418  -0.018342163
C        4.918969057   6.390072319   0.000833308
C        6.149575433   7.101096965   0.003759267
C        4.049163318   1.492739476   3.039838269
C        2.704907026   1.854009932   3.038053794
C        2.342385757   3.203440036   3.039975954
C        3.327880840   4.186065914   3.038003836
C        4.678513668   3.825536157   3.039845681
C        5.037198372   2.481178282   3.038149163
H        4.330932128   0.447768670   3.003330823
H        1.938531392   1.088757346   3.002009449
H        1.297311270   3.483038653   3.003755242
H        3.049039730   5.232720207   3.002019232
H        5.441903407   4.592504001   3.003347305
H        6.082304842   2.198268494   3.002350195



     Writing output data file batch_graph+benzene.save/
     NEW-OLD atomic charge density approx. for the potential

     negative rho (up, down):  2.127E-04 0.000E+00

     total cpu time spent up to now is      864.1 secs

     Self-consistent Calculation

     iteration #  1     ecut=    32.00 Ry     beta= 0.50
     Davidson diagonalization with overlap
     ethr =  1.00E-06,  avg # of iterations =  4.0

     negative rho (up, down):  2.124E-04 0.000E+00

     total cpu time spent up to now is      921.3 secs

     total energy              =    -351.26316185 Ry
     Harris-Foulkes estimate   =    -351.26398236 Ry
     estimated scf accuracy    <       0.00183195 Ry

     iteration #  2     ecut=    32.00 Ry     beta= 0.50
     Davidson diagonalization with overlap
     ethr =  1.45E-06,  avg # of iterations =  2.5

     negative rho (up, down):  2.144E-04 0.000E+00

     total cpu time spent up to now is      952.3 secs

     total energy              =    -351.26348111 Ry
     Harris-Foulkes estimate   =    -351.26353498 Ry
     estimated scf accuracy    <       0.00022107 Ry

     iteration #  3     ecut=    32.00 Ry     beta= 0.50
     Davidson diagonalization with overlap
     ethr =  1.75E-07,  avg # of iterations =  2.0

     negative rho (up, down):  2.155E-04 0.000E+00

     total cpu time spent up to now is      981.7 secs

     total energy              =    -351.26351657 Ry
     Harris-Foulkes estimate   =    -351.26351888 Ry
     estimated scf accuracy    <       0.00004290 Ry

     iteration #  4     ecut=    32.00 Ry     beta= 0.50
     Davidson diagonalization with overlap
     ethr =  3.40E-08,  avg # of iterations =  2.0

     negative rho (up, down):  2.187E-04 0.000E+00

     total cpu time spent up to now is     1010.8 secs

     total energy              =    -351.26352253 Ry
     Harris-Foulkes estimate   =    -351.26352259 Ry
     estimated scf accuracy    <       0.00000626 Ry

     iteration #  5     ecut=    32.00 Ry     beta= 0.50
     Davidson diagonalization with overlap
     ethr =  4.97E-09,  avg # of iterations =  2.0

     negative rho (up, down):  2.142E-04 0.000E+00

     total cpu time spent up to now is     1039.8 secs

     total energy              =    -351.26352366 Ry
     Harris-Foulkes estimate   =    -351.26352391 Ry
     estimated scf accuracy    <       0.00000133 Ry

     iteration #  6     ecut=    32.00 Ry     beta= 0.50
     Davidson diagonalization with overlap
     ethr =  1.05E-09,  avg # of iterations =  2.0

     negative rho (up, down):  2.124E-04 0.000E+00

     total cpu time spent up to now is     1067.5 secs

     End of self-consistent calculation

          k = 0.0000 0.0000 0.0000 ( 31971 PWs)   bands (ev):

   -21.9329 -20.4788 -20.4755 -20.0048 -19.9959 -19.5549 -18.5919 -18.5884
   -18.5842 -18.5839 -16.8314 -16.8254 -16.7446 -15.6535 -15.0845 -15.0797
   -15.0780 -15.0760 -13.2765 -13.2533 -13.1065 -13.1052 -13.1012 -13.0979
   -12.9625 -12.9613 -11.3692 -10.2948 -10.2906 -10.0213  -9.9360  -9.9356
    -9.7132  -9.3160  -9.1057  -9.1041  -9.1013  -9.1001  -8.9654  -8.9206
    -8.9199  -8.7715  -8.6764  -8.3857  -8.2273  -7.8315  -7.7156  -7.6126
    -7.6120  -7.0792  -6.7943  -6.7816  -6.2186  -6.2091  -6.1374  -6.0986
    -5.6438  -5.6297  -4.8055  -4.4998  -4.4865  -2.3933  -2.3868  -2.3835
    -2.3832  -0.6752  -0.0340   0.4175   0.5201   0.6873   1.3355   1.3382
     1.3553   1.3747   1.5836   1.9937

          k = 0.0000 0.0722 0.0000 ( 31929 PWs)   bands (ev):

   -21.8411 -21.1105 -19.9166 -19.9063 -19.6790 -19.5494 -19.1965 -19.1942
   -17.8233 -17.8203 -17.6075 -16.8256 -16.8233 -15.9524 -15.9504 -14.6647
   -14.5511 -14.5509 -13.7055 -13.7041 -13.2676 -13.2469 -12.4429 -12.4411
   -12.3804 -12.3783 -11.5703 -11.3613 -10.7532 -10.7497 -10.1454 -10.1439
    -9.9197  -9.7142  -9.3152  -9.1180  -8.8747  -8.6768  -8.6725  -8.6100
    -8.6077  -8.4380  -8.4377  -8.3606  -8.1767  -7.7778  -7.6220  -7.4328
    -7.1139  -6.9675  -6.9095  -6.7940  -6.7013  -6.6933  -5.9948  -5.8351
    -5.4065  -5.3764  -5.2822  -4.4976  -4.4913  -3.3970  -3.3874  -1.4133
    -1.3999  -0.0388   0.1055   0.3277   0.4245   0.5422   0.5866   0.8165
     1.3207   1.7889   1.8565   2.2041

          k = 0.0000-0.1443 0.0000 ( 31940 PWs)   bands (ev):

   -21.5679 -21.5649 -19.6785 -19.6444 -19.6407 -19.6368 -19.5226 -18.7064
   -18.6973 -16.9464 -16.9344 -16.9239 -16.9222 -16.8122 -16.8031 -14.1715
   -14.1705 -14.1698 -14.1681 -13.2728 -13.2469 -13.1748 -13.1626 -11.5699
   -11.5669 -11.5615 -11.5603 -11.3585 -11.3436 -11.3430 -11.3396 -11.3369
    -9.7162  -9.6212  -9.6099  -9.3147  -8.7032  -8.6714  -8.6079  -8.6044
    -8.3034  -8.3021  -8.2944  -8.2934  -7.6201  -7.3431  -7.3424  -7.3290
    -6.9936  -6.9754  -6.9533  -6.7711  -6.7325  -6.3497  -6.3339  -6.3236
    -6.2468  -4.7328  -4.6669  -4.4132  -4.4016  -4.2636  -4.2035  -0.5163
    -0.4681  -0.4622  -0.4557   0.3457   0.4744   0.5185   0.8836   1.1866
     1.2572   1.4123   1.4529   2.0662

          k = 0.0833 0.0000 0.0000 ( 31951 PWs)   bands (ev):

   -21.8106 -20.8386 -20.3593 -20.3557 -19.5693 -19.4047 -19.3918 -18.9354
   -17.5804 -17.5791 -16.8344 -16.8270 -16.6434 -16.2938 -15.8095 -15.5526
   -14.9025 -14.6458 -14.6447 -14.1531 -13.2536 -13.2501 -12.4264 -12.1865
   -11.7342 -11.5121 -11.5113 -11.3332 -10.1994  -9.9642  -9.9614  -9.8831
    -9.7198  -9.4739  -9.3162  -9.1785  -9.1778  -9.0021  -9.0018  -8.8827
    -8.7716  -8.7472  -8.6063  -8.2283  -8.1094  -8.0679  -8.0671  -7.6812
    -7.2987  -7.0892  -6.8993  -6.7663  -6.7317  -6.4735  -6.1173  -5.8902
    -5.2834  -5.2584  -4.6900  -4.5244  -4.4518  -3.6666  -3.4073  -1.4314
    -1.1046  -0.7191  -0.0601  -0.0434   0.1687   0.4926   0.5428   0.8616
     1.5290   1.7446   2.1440   2.1949

          k = 0.0833 0.0722 0.0000 ( 31951 PWs)   bands (ev):

   -21.7189 -20.9895 -20.7480 -20.0295 -19.5877 -19.5208 -18.8480 -18.6169
   -18.1592 -17.4975 -16.9056 -16.8304 -16.8201 -16.6254 -16.2577 -15.1625
   -14.6730 -14.5739 -14.0575 -13.9373 -13.2521 -13.2492 -12.2442 -12.2301
   -12.0116 -11.7971 -11.5344 -11.3267 -10.7488 -10.3634  -9.7847  -9.7459
    -9.7236  -9.7039  -9.3816  -9.3154  -9.1768  -8.9961  -8.8315  -8.7904
    -8.6734  -8.6612  -8.5214  -8.4943  -8.1783  -7.8188  -7.5410  -7.3622
    -7.3488  -7.0268  -6.7864  -6.7495  -6.4529  -6.3942  -6.1599  -6.0665
[...]

     CASE: energy  _new < energy  _old

     new trust radius        =       0.0005220875 bohr
     new conv_thr            =       0.0000000100 Ry


ATOMIC_POSITIONS (angstrom)
C        1.229412396   0.000206998  -0.173850938
C       -0.000878175   0.710011811  -0.175601212
C       -0.000855155   2.130670382  -0.187319837
C        1.229554990   2.840076418  -0.193395798
C        1.229636732   4.260326603  -0.186463665
C       -0.000714064   4.970079396  -0.175922175
C       -0.000739772   6.390945402  -0.167670786
C        1.229339500   7.100999517  -0.168519499
C        3.688821346   0.000505004  -0.179384343
C        2.459494958   0.710484958  -0.186447445
C        2.459734724   2.130537334  -0.199215018
C        3.689244368   2.840129350  -0.204370536
C        3.689363117   4.260107123  -0.198478318
C        2.459942769   4.969978135  -0.187661480
C        2.459618850   6.390525982  -0.174243112
C        3.689162759   7.101273482  -0.172485048
C        6.148840236   0.000261397  -0.173417556
C        4.918607285   0.710406077  -0.186176888
C        4.918662599   2.130456406  -0.199097311
C        6.148837596   2.840044086  -0.193311100
C        6.149004355   4.260303083  -0.186348518
C        4.918729444   4.970040169  -0.187417234
C        4.918877422   6.390605415  -0.173768188
C        6.149130855   7.101046943  -0.168067242
C        4.046526545   1.492280336   3.370895807
C        2.700357919   1.858988954   3.371209288
C        2.345231386   3.208274077   3.371839759
C        3.336441743   4.189783289   3.371119928
C        4.683111019   3.823169353   3.370684525
C        5.037949023   2.474279872   3.370454315
H        4.323234421   0.441326035   3.361883192
H        1.928999202   1.093330418   3.362073988
H        1.297183390   3.495717929   3.363946220
H        3.059871046   5.240868882   3.362069520
H        5.454269326   4.588963940   3.361401140
H        6.085995845   2.186655073   3.361055563



     Writing output data file batch_graph+benzene.save/
     NEW-OLD atomic charge density approx. for the potential

     negative rho (up, down):  2.033E-04 0.000E+00

     total cpu time spent up to now is     8956.6 secs

     Self-consistent Calculation

     iteration #  1     ecut=    32.00 Ry     beta= 0.50
     Davidson diagonalization with overlap
     ethr =  1.00E-06,  avg # of iterations =  2.0

     Threshold (ethr) on eigenvalues was too large:
     Diagonalizing with lowered threshold

     Davidson diagonalization with overlap
     ethr =  1.05E-10,  avg # of iterations =  3.4

     negative rho (up, down):  2.033E-04 0.000E+00

     total cpu time spent up to now is     9020.3 secs

     total energy              =    -351.28295106 Ry
     Harris-Foulkes estimate   =    -351.28295116 Ry
     estimated scf accuracy    <       0.00000024 Ry

     iteration #  2     ecut=    32.00 Ry     beta= 0.50
     Davidson diagonalization with overlap
     ethr =  1.91E-10,  avg # of iterations =  2.0

     negative rho (up, down):  2.033E-04 0.000E+00

     total cpu time spent up to now is     9051.1 secs

     total energy              =    -351.28295109 Ry
     Harris-Foulkes estimate   =    -351.28295110 Ry
     estimated scf accuracy    <       0.00000004 Ry

     iteration #  3     ecut=    32.00 Ry     beta= 0.50
     Davidson diagonalization with overlap
     ethr =  2.98E-11,  avg # of iterations =  2.5

     negative rho (up, down):  2.033E-04 0.000E+00

     total cpu time spent up to now is     9081.4 secs

     total energy              =    -351.28295109 Ry
     Harris-Foulkes estimate   =    -351.28295110 Ry
     estimated scf accuracy    <       0.00000001 Ry

     iteration #  4     ecut=    32.00 Ry     beta= 0.50
     Davidson diagonalization with overlap
     ethr =  1.09E-11,  avg # of iterations =  2.6

     negative rho (up, down):  2.034E-04 0.000E+00

     total cpu time spent up to now is     9110.0 secs

     End of self-consistent calculation

          k = 0.0000 0.0000 0.0000 ( 31971 PWs)   bands (ev):

   -21.8593 -20.4035 -20.4032 -19.9271 -19.9240 -19.5689 -18.5189 -18.5163
   -18.5149 -18.5131 -16.8288 -16.8275 -16.6791 -15.5868 -15.0123 -15.0093
   -15.0091 -15.0084 -13.2651 -13.2430 -13.0357 -13.0354 -13.0341 -13.0338
   -12.8953 -12.8948 -11.3362 -10.2229 -10.2202  -9.9398  -9.8700  -9.8684
    -9.6914  -9.3325  -9.0397  -9.0391  -9.0329  -9.0321  -8.8957  -8.8556
    -8.8551  -8.7219  -8.6557  -8.2323  -8.1953  -7.6923  -7.6423  -7.5429
    -7.5426  -7.2718  -6.8105  -6.7754  -6.1008  -6.1001  -6.0789  -6.0720
    -5.5730  -5.5675  -4.7080  -4.6126  -4.5953  -2.3123  -2.3091  -2.3077
    -2.3070  -0.6029  -0.1373   0.3615   0.4694   0.6715   1.4157   1.4192
     1.4310   1.4376   1.4700   1.8765

          k = 0.0000 0.0722 0.0000 ( 31929 PWs)   bands (ev):

   -21.7676 -21.0369 -19.8378 -19.8345 -19.6011 -19.5656 -19.1267 -19.1247
   -17.7511 -17.7488 -17.5355 -16.8289 -16.8275 -15.8830 -15.8810 -14.5965
   -14.4812 -14.4807 -13.6346 -13.6333 -13.2629 -13.2428 -12.3743 -12.3733
   -12.3104 -12.3088 -11.5030 -11.3312 -10.6822 -10.6800 -10.0776 -10.0764
    -9.8297  -9.6928  -9.3324  -8.9768  -8.8049  -8.7087  -8.6546  -8.5446
    -8.5438  -8.3722  -8.3719  -8.2956  -8.1068  -7.6106  -7.5431  -7.3559
    -7.2063  -6.8970  -6.8089  -6.8043  -6.7320  -6.7205  -5.9322  -5.7638
    -5.2819  -5.2758  -5.2035  -4.6130  -4.6103  -3.3249  -3.3239  -1.3267
    -1.3237   0.0011   0.0530   0.3652   0.4510   0.5347   0.5477   0.8007
     1.2192   1.6790   1.8321   2.2116

          k = 0.0000-0.1443 0.0000 ( 31940 PWs)   bands (ev):

   -21.4992 -21.4864 -19.5878 -19.5758 -19.5732 -19.5606 -19.5446 -18.6337
   -18.6279 -16.8624 -16.8555 -16.8520 -16.8517 -16.8232 -16.8219 -14.1045
   -14.1031 -14.0958 -14.0952 -13.2616 -13.2431 -13.1045 -13.1040 -11.4987
   -11.4965 -11.4921 -11.4906 -11.3262 -11.2768 -11.2748 -11.2727 -11.2719
    -9.6945  -9.5116  -9.4998  -9.3323  -8.7308  -8.6535  -8.5421  -8.5322
    -8.2355  -8.2349  -8.2303  -8.2292  -7.4581  -7.2547  -7.2540  -7.2409
    -7.1121  -6.9244  -6.9092  -6.7998  -6.7635  -6.2637  -6.2525  -6.2392
    -6.2114  -4.6711  -4.6436  -4.3329  -4.3284  -4.3038  -4.2912  -0.3988
    -0.3899  -0.3859  -0.3821   0.2387   0.3994   0.4593   0.8006   1.1736
     1.2269   1.4890   1.5097   1.9839

          k = 0.0833 0.0000 0.0000 ( 31951 PWs)   bands (ev):

   -21.7370 -20.7649 -20.2838 -20.2834 -19.5689 -19.3326 -19.3316 -18.8646
   -17.5078 -17.5075 -16.8360 -16.8276 -16.5745 -16.2250 -15.7385 -15.4858
   -14.8354 -14.5748 -14.5745 -14.0818 -13.2490 -13.2462 -12.3594 -12.1163
   -11.6631 -11.4424 -11.4420 -11.3048 -10.1333  -9.8969  -9.8954  -9.7921
    -9.6970  -9.4039  -9.3333  -9.1110  -9.1107  -8.9355  -8.9353  -8.7636
    -8.7129  -8.6979  -8.6084  -8.0916  -8.0582  -7.9976  -7.9973  -7.6171
    -7.3297  -6.9798  -6.9380  -6.7823  -6.7650  -6.4260  -6.0460  -5.8277
    -5.1735  -5.1663  -4.6446  -4.6257  -4.5067  -3.6088  -3.3349  -1.3537
    -1.0198  -0.6458   0.0251   0.0427   0.0703   0.4168   0.4570   0.8449
     1.4172   1.6331   2.0804   2.1842

          k = 0.0833 0.0722 0.0000 ( 31951 PWs)   bands (ev):

   -21.6454 -20.9159 -20.6743 -19.9547 -19.5691 -19.4785 -18.7770 -18.5457
   -18.0875 -17.4252 -16.8396 -16.8302 -16.8177 -16.5592 -16.1889 -15.0917
   -14.6020 -14.5056 -13.9893 -13.8665 -13.2483 -13.2453 -12.1738 -12.1614
   -11.9414 -11.7295 -11.4670 -11.3001 -10.6793 -10.2946  -9.6987  -9.6867
    -9.6771  -9.6402  -9.3335  -9.3113  -9.1066  -8.8482  -8.7456  -8.7241
    -8.6932  -8.5922  -8.5148  -8.4298  -8.1119  -7.7070  -7.4757  -7.3272
    -7.2916  -7.1127  -6.7769  -6.7728  -6.3846  -6.3390  -6.0785  -6.0007
    -5.6845  -5.0674  -4.6795  -4.6179  -4.5490  -3.9733  -3.7261  -0.9925
    -0.6712  -0.4973   0.0061   0.1826   0.4239   0.4428   0.7296   0.9721
     1.3500   1.4970   1.7331   1.8918

          k = 0.0833-0.1443 0.0000 ( 31876 PWs)   bands (ev):

   -21.3774 -21.3646 -20.4097 -20.3971 -19.5680 -18.5225 -18.5185 -18.5133
   -18.5091 -17.6117 -17.6062 -16.8360 -16.8286 -16.2622 -16.2566 -15.2027
   -15.2021 -13.2487 -13.2441 -13.0384 -13.0339 -13.0337 -13.0314 -12.9604
   -12.9563 -11.3442 -11.3370 -11.2949 -10.6552 -10.6523  -9.8744  -9.8692
    -9.7000  -9.3664  -9.3580  -9.3334  -9.0423  -9.0375  -9.0335  -9.0319
    -8.7377  -8.7264  -8.2152  -8.2111  -7.5435  -7.5377  -7.3050  -7.2223
    -7.2133  -6.7790  -6.7686  -6.5620  -6.5563  -6.1019  -6.0940  -6.0827
    -6.0747  -5.0789  -5.0538  -4.6298  -4.6009  -4.0786  -4.0653  -0.8495
    -0.8380   0.3767   0.4109   0.4301   0.5154   0.5372   0.9909   1.3469
     1.3896   1.4213   1.4251   1.4339

          k =-0.1667 0.0000 0.0000 ( 31854 PWs)   bands (ev):

   -21.3752 -21.3668 -19.9294 -19.9292 -19.9222 -19.9209 -19.5655 -17.6092
   -17.6088 -16.8443 -16.8273 -16.6781 -16.6780 -16.2643 -16.2568 -15.5890
   -15.5886 -15.2045 -15.1958 -13.2512 -13.2320 -12.9604 -12.9602 -11.3387
   -11.3385 -11.2710 -10.6601 -10.6502 -10.2210 -10.2194 -10.2191 -10.2168
    -9.7062  -9.3676  -9.3578  -9.3340  -8.8945  -8.8944  -8.8611  -8.8600
    -8.8569  -8.8554  -8.7979  -8.7039  -7.7262  -7.6529  -7.6497  -7.6386
    -7.2319  -7.2258  -7.2161  -6.7768  -6.7514  -6.5588  -6.5519  -5.0871
    -5.0467  -4.7163  -4.6961  -4.6144  -4.5824  -4.0834  -4.0657  -0.8510
    -0.8301  -0.6063  -0.6058   0.4050   0.4571   0.4777   0.5138   0.5321
     0.7681   1.3462   1.3744   2.1169

          k =-0.1667 0.0722 0.0000 ( 31908 PWs)   bands (ev):

   -21.2840 -21.2756 -20.5580 -20.5497 -19.5670 -19.1314 -19.1227 -17.5271
   -17.5267 -17.1003 -17.0929 -16.9318 -16.9302 -16.8421 -16.8268 -15.1880
   -15.1878 -14.2577 -14.2497 -13.5115 -13.5112 -13.2513 -13.2301 -11.4666
   -11.4607 -11.2665 -10.7707 -10.7706 -10.5568 -10.5470  -9.7082  -9.6896
    -9.6816  -9.3345  -9.2610  -9.2521  -9.2042  -9.2016  -9.1639  -9.1638
    -8.8001  -8.7235  -8.3848  -8.3811  -7.8525  -7.8521  -7.5881  -7.5809
    -7.3123  -6.7976  -6.7663  -6.7170  -6.6940  -6.5932  -6.5894  -5.0413
    -5.0002  -4.7768  -4.7580  -4.7089  -4.6544  -4.5669  -4.5253  -0.4498
    -0.4481  -0.1973  -0.1780   0.3119   0.3331   0.4358   0.4943   0.5552
     0.8845   1.4674   1.4909   1.6065

          k =-0.1667-0.1443 0.0000 ( 31784 PWs)   bands (ev):

   -21.0161 -21.0100 -21.0056 -20.9950 -19.5666 -18.1793 -18.1744 -18.1720
   -18.1654 -17.2954 -17.2928 -17.2829 -17.2793 -16.8430 -16.8280 -14.4030
   -14.4007 -14.3945 -14.3923 -13.2518 -13.2284 -12.8679 -12.8674 -12.8603
   -12.8601 -11.2616 -10.2458 -10.2377 -10.2371 -10.2262  -9.8791  -9.8773
    -9.8648  -9.8628  -9.7089  -9.3347  -8.9682  -8.9504  -8.9353  -8.9282
    -8.7545  -8.6950  -8.3282  -8.3277  -8.3250  -8.3212  -7.3023  -7.0068
    -7.0059  -7.0038  -7.0006  -6.7811  -6.7412  -5.7088  -5.6928  -5.6861
    -5.6640  -4.9461  -4.8925  -4.8827  -4.8637  -4.6025  -4.5794  -0.0856
    -0.0795  -0.0511  -0.0471   0.3943   0.5139   0.6628   1.0321   1.1340
     1.1464   1.1488   1.1642   1.3014

          k =-0.0833 0.0722 0.0000 ( 31951 PWs)   bands (ev):

   -21.6454 -20.9159 -20.6743 -19.9547 -19.5691 -19.4785 -18.7770 -18.5457
   -18.0875 -17.4252 -16.8391 -16.8307 -16.8178 -16.5592 -16.1889 -15.0918
   -14.6019 -14.5056 -13.9893 -13.8664 -13.2484 -13.2453 -12.1738 -12.1613
   -11.9413 -11.7295 -11.4670 -11.3000 -10.6794 -10.2947  -9.6990  -9.6864
    -9.6766  -9.6405  -9.3336  -9.3112  -9.1065  -8.8488  -8.7445  -8.7240
    -8.6934  -8.5922  -8.5157  -8.4297  -8.1118  -7.7081  -7.4758  -7.3269
    -7.2917  -7.1094  -6.7779  -6.7719  -6.3848  -6.3416  -6.0792  -6.0006
    -5.6843  -5.0668  -4.6780  -4.6192  -4.5495  -3.9730  -3.7263  -0.9918
    -0.6718  -0.4966   0.0082   0.1859   0.4236   0.4389   0.7284   0.9723
     1.3684   1.5239   1.7339   1.8861

     the Fermi energy is    -2.3090 ev

!    total energy              =    -351.28295109 Ry
     Harris-Foulkes estimate   =    -351.28295110 Ry
     estimated scf accuracy    <          2.7E-09 Ry

     The total energy is the sum of the following terms:

     one-electron contribution =   -4569.40276129 Ry
     hartree contribution      =    2304.78485896 Ry
     xc contribution           =    -112.23392838 Ry
     ewald contribution        =    2025.57170042 Ry
     smearing contrib. (-TS)   =      -0.00282081 Ry

     convergence has been achieved in   4 iterations

     Forces acting on atoms (cartesian axes, Ry/au):

     atom    1 type  1   force =    -0.00006596   -0.00000049    0.00000658
     atom    2 type  1   force =    -0.00000398    0.00001407    0.00002889
     atom    3 type  1   force =    -0.00001331    0.00000028   -0.00000816
     atom    4 type  1   force =     0.00004140   -0.00002825    0.00001781
     atom    5 type  1   force =    -0.00005209   -0.00001575   -0.00001566
     atom    6 type  1   force =     0.00000883   -0.00003464   -0.00007303
     atom    7 type  1   force =    -0.00002403   -0.00004856    0.00001555
     atom    8 type  1   force =     0.00000775    0.00002525    0.00000950
     atom    9 type  1   force =    -0.00003653    0.00002764    0.00005164
     atom   10 type  1   force =    -0.00005935    0.00002621    0.00004952
     atom   11 type  1   force =    -0.00003001    0.00000128   -0.00000743
     atom   12 type  1   force =     0.00002993    0.00002392   -0.00000886
     atom   13 type  1   force =    -0.00005163    0.00004411    0.00001364
     atom   14 type  1   force =    -0.00002173    0.00002989   -0.00003265
     atom   15 type  1   force =    -0.00000709    0.00004019   -0.00003206
     atom   16 type  1   force =    -0.00001388    0.00004826   -0.00000923
     atom   17 type  1   force =    -0.00004822   -0.00005287    0.00000371
     atom   18 type  1   force =    -0.00001176    0.00001959    0.00004666
     atom   19 type  1   force =    -0.00000212   -0.00000776   -0.00000813
     atom   20 type  1   force =     0.00000831   -0.00000857    0.00001461
     atom   21 type  1   force =    -0.00003829    0.00002348   -0.00001535
     atom   22 type  1   force =    -0.00003260    0.00000372   -0.00003720
     atom   23 type  1   force =    -0.00002086    0.00002663   -0.00003842
     atom   24 type  1   force =     0.00004516   -0.00001794    0.00000588
     atom   25 type  1   force =     0.00003566    0.00003612    0.00001752
     atom   26 type  1   force =     0.00002045    0.00002260   -0.00000490
     atom   27 type  1   force =     0.00006333   -0.00004053    0.00000087
     atom   28 type  1   force =     0.00001027   -0.00000215    0.00000526
     atom   29 type  1   force =     0.00007076   -0.00003023    0.00000491
     atom   30 type  1   force =     0.00000050   -0.00002539   -0.00000500
     atom   31 type  2   force =     0.00001733   -0.00000499   -0.00001133
     atom   32 type  2   force =     0.00000923   -0.00000769    0.00000365
     atom   33 type  2   force =     0.00002265    0.00000031    0.00000880
     atom   34 type  2   force =     0.00005445   -0.00003658   -0.00001160
     atom   35 type  2   force =     0.00003922   -0.00002805   -0.00000445
     atom   36 type  2   force =     0.00004823   -0.00002313    0.00001848

     Total force =     0.000307     Total SCF correction =     0.000123
     SCF correction compared to forces is large: reduce conv_thr to get better values

     bfgs converged in  43 scf cycles and  42 bfgs steps
     (criteria: energy <  1.0E-05 Ry, force <  1.0E-04 Ry/Bohr)

     End of BFGS Geometry Optimization

     Final energy   =    -351.2829510916 Ry
Begin final coordinates

ATOMIC_POSITIONS (angstrom)
C        1.229412396   0.000206998  -0.173850938
C       -0.000878175   0.710011811  -0.175601212
C       -0.000855155   2.130670382  -0.187319837
C        1.229554990   2.840076418  -0.193395798
C        1.229636732   4.260326603  -0.186463665
C       -0.000714064   4.970079396  -0.175922175
C       -0.000739772   6.390945402  -0.167670786
C        1.229339500   7.100999517  -0.168519499
C        3.688821346   0.000505004  -0.179384343
C        2.459494958   0.710484958  -0.186447445
C        2.459734724   2.130537334  -0.199215018
C        3.689244368   2.840129350  -0.204370536
C        3.689363117   4.260107123  -0.198478318
C        2.459942769   4.969978135  -0.187661480
C        2.459618850   6.390525982  -0.174243112
C        3.689162759   7.101273482  -0.172485048
C        6.148840236   0.000261397  -0.173417556
C        4.918607285   0.710406077  -0.186176888
C        4.918662599   2.130456406  -0.199097311
C        6.148837596   2.840044086  -0.193311100
C        6.149004355   4.260303083  -0.186348518
C        4.918729444   4.970040169  -0.187417234
C        4.918877422   6.390605415  -0.173768188
C        6.149130855   7.101046943  -0.168067242
C        4.046526545   1.492280336   3.370895807
C        2.700357919   1.858988954   3.371209288
C        2.345231386   3.208274077   3.371839759
C        3.336441743   4.189783289   3.371119928
C        4.683111019   3.823169353   3.370684525
C        5.037949023   2.474279872   3.370454315
H        4.323234421   0.441326035   3.361883192
H        1.928999202   1.093330418   3.362073988
H        1.297183390   3.495717929   3.363946220
H        3.059871046   5.240868882   3.362069520
H        5.454269326   4.588963940   3.361401140
H        6.085995845   2.186655073   3.361055563
End final coordinates



     Writing output data file batch_graph+benzene.save/

     init_run     :     20.00s CPU     20.30s WALL (       1 calls)
     electrons    :   8342.61s CPU   8462.02s WALL (      43 calls)
     update_pot   :    149.15s CPU    152.47s WALL (      42 calls)
     forces       :    449.77s CPU    454.04s WALL (      43 calls)

     Called by init_run:
     wfcinit      :     15.65s CPU     15.80s WALL (       1 calls)
     potinit      :      2.40s CPU      2.50s WALL (       1 calls)
     hinit0       :      1.12s CPU      1.13s WALL (       1 calls)

     Called by electrons:
     c_bands      :   6949.70s CPU   7023.84s WALL (     259 calls)
     sum_band     :    851.90s CPU    869.95s WALL (     259 calls)
     v_of_rho     :    453.98s CPU    474.95s WALL (     289 calls)
     newd         :    161.72s CPU    170.78s WALL (     289 calls)
     mix_rho      :      9.22s CPU      9.46s WALL (     259 calls)

     Called by c_bands:
     init_us_2    :     28.16s CPU     28.26s WALL (    5620 calls)
     cegterg      :   6887.81s CPU   6961.18s WALL (    2590 calls)

     Called by sum_band:
     sum_band:bec :      1.00s CPU      1.01s WALL (    2590 calls)
     addusdens    :    116.95s CPU    125.52s WALL (     259 calls)

     Called by *egterg:
     h_psi        :   3485.21s CPU   3541.39s WALL (    9551 calls)
     s_psi        :   1034.53s CPU   1037.24s WALL (    9551 calls)
     g_psi        :      5.49s CPU      5.53s WALL (    6951 calls)
     cdiaghg      :    242.99s CPU    243.61s WALL (    8991 calls)

     Called by h_psi:
     h_psi:pot    :   3477.63s CPU   3527.02s WALL (    9551 calls)
     h_psi:calbec :   1112.44s CPU   1116.02s WALL (    9551 calls)
     vloc_psi     :   1321.70s CPU   1365.02s WALL (    9551 calls)
     add_vuspsi   :   1043.44s CPU   1045.95s WALL (    9551 calls)

     General routines
     calbec       :   1827.36s CPU   1833.04s WALL (   13861 calls)
     fft          :    285.37s CPU    296.01s WALL (   18262 calls)
     ffts         :      1.32s CPU      1.37s WALL (     548 calls)
     fftw         :   1485.81s CPU   1534.97s WALL ( 1211058 calls)
     interpolate  :      5.57s CPU      5.75s WALL (     289 calls)

     Parallel routines
     fft_scatt_xy :    159.16s CPU    164.98s WALL ( 1229868 calls)
     fft_scatt_yz :    266.87s CPU    287.54s WALL ( 1229868 calls)

     PWSCF        :      2h29m CPU      2h32m WALL


   This run was terminated on:  11:41: 4   2Dec2020            

=------------------------------------------------------------------------------=
   JOB DONE.
=------------------------------------------------------------------------------=
