
     Program PWSCF v.6.4.1 starts on 28Nov2020 at  9:56: 8 

     This program is part of the open-source Quantum ESPRESSO suite
     for quantum simulation of materials; please cite
         "P. Giannozzi et al., J. Phys.:Condens. Matter 21 395502 (2009);
         "P. Giannozzi et al., J. Phys.:Condens. Matter 29 465901 (2017);
          URL http://www.quantum-espresso.org", 
     in publications or presentations arising from this work. More details at
     http://www.quantum-espresso.org/quote

     Parallel version (MPI), running on     8 processors

     MPI processes distributed on     1 nodes
     R & G space division:  proc/nbgrp/npool/nimage =       8
     Waiting for input...
     Reading input from standard input

     Current dimensions of program PWSCF are:
     Max number of different atomic species (ntypx) = 10
     Max number of k-points (npk) =  40000
     Max angular momentum in pseudopotentials (lmaxx) =  3

     IMPORTANT: XC functional enforced from input :
     Exchange-correlation      = VDW-DF ( 1  4  4  0 1 0)
     Any further DFT definition will be discarded
     Please, verify this is what you really want

               file C.pbe-rrkjus.UPF: wavefunction(s)  2S 2P renormalized

     Subspace diagonalization in iterative solution of the eigenvalue problem:
     a serial algorithm will be used

     Message from routine setup:
     DEPRECATED: symmetry with ibrav=0, use correct ibrav instead

     Parallelization info
     --------------------
     sticks:   dense  smooth     PW     G-vecs:    dense   smooth      PW
     Min         714     285     79               126154    31889    4649
     Max         715     286     80               126163    31900    4658
     Sum        5713    2283    637              1009261   255153   37237



     bravais-lattice index     =            0
     lattice parameter (alat)  =       4.6487  a.u.
     unit-cell volume          =   10440.3175 (a.u.)^3
     number of atoms/cell      =           36
     number of atomic types    =            2
     number of electrons       =       126.00
     number of Kohn-Sham states=           76
     kinetic-energy cutoff     =      32.0000  Ry
     charge density cutoff     =     320.0000  Ry
     convergence threshold     =      1.0E-06
     mixing beta               =       0.5000
     number of iterations used =            8  plain     mixing
     Exchange-correlation      = VDW-DF ( 1  4  4  0 1 0)
     nstep                     =          200


     celldm(1)=   4.648726  celldm(2)=   0.000000  celldm(3)=   0.000000
     celldm(4)=   0.000000  celldm(5)=   0.000000  celldm(6)=   0.000000

     crystal axes: (cart. coord. in units of alat)
               a(1) = (   3.000000   0.000000   0.000000 )  
               a(2) = (   0.000000   3.464102   0.000000 )  
               a(3) = (   0.000000   0.000000  10.000000 )  

     reciprocal axes: (cart. coord. in units 2 pi/alat)
               b(1) = (  0.333333  0.000000  0.000000 )  
               b(2) = (  0.000000  0.288675  0.000000 )  
               b(3) = (  0.000000  0.000000  0.100000 )  


     PseudoPot. # 1 for C  read from file:
     ../../pseudopotentials/C.pbe-rrkjus.UPF
     MD5 check sum: 00fb224312de0c5b6853bd333518df6f
     Pseudo is Ultrasoft, Zval =  4.0
     Generated by new atomic code, or converted to UPF format
     Using radial grid of  627 points,  4 beta functions with: 
                l(1) =   0
                l(2) =   0
                l(3) =   1
                l(4) =   1
     Q(r) pseudized with 0 coefficients 


     PseudoPot. # 2 for H  read from file:
     ../../pseudopotentials/H.pbe-rrkjus_psl.1.0.0.UPF
     MD5 check sum: 3f4114867bd07edc7f1424d066fc1888
     Pseudo is Ultrasoft, Zval =  1.0
     Generated using "atomic" code by A. Dal Corso v.6.3MaX
     Using radial grid of  929 points,  2 beta functions with: 
                l(1) =   0
                l(2) =   0
     Q(r) pseudized with 0 coefficients 


     vdW kernel table read from file vdW_kernel_table
     MD5 check sum: 48e77a2e26edf626eeb0eaa751ad5cac

     atomic species   valence    mass     pseudopotential
        C              4.00    12.01070     C ( 1.00)
        H              1.00     1.00790     H ( 1.00)

      2 Sym. Ops. (no inversion) found ( 1 have fractional translation)



   Cartesian axes

     site n.     atom                  positions (alat units)
         1           C   tau(   1) = (   0.5000000   0.0000000   0.0000000  )
         2           C   tau(   2) = (   0.0000000   0.2886752   0.0000000  )
         3           C   tau(   3) = (   0.0000000   0.8660255   0.0000000  )
         4           C   tau(   4) = (   0.5000000   1.1547006   0.0000000  )
         5           C   tau(   5) = (   0.5000000   1.7320509   0.0000000  )
         6           C   tau(   6) = (   0.0000000   2.0207261   0.0000000  )
         7           C   tau(   7) = (   0.0000000   2.5980764   0.0000000  )
         8           C   tau(   8) = (   0.5000000   2.8867516   0.0000000  )
         9           C   tau(   9) = (   1.5000001   0.0000000   0.0000000  )
        10           C   tau(  10) = (   1.0000001   0.2886752   0.0000000  )
        11           C   tau(  11) = (   1.0000001   0.8660255   0.0000000  )
        12           C   tau(  12) = (   1.5000001   1.1547006   0.0000000  )
        13           C   tau(  13) = (   1.5000001   1.7320509   0.0000000  )
        14           C   tau(  14) = (   1.0000001   2.0207261   0.0000000  )
        15           C   tau(  15) = (   1.0000001   2.5980764   0.0000000  )
        16           C   tau(  16) = (   1.5000001   2.8867516   0.0000000  )
        17           C   tau(  17) = (   2.5000002   0.0000000   0.0000000  )
        18           C   tau(  18) = (   2.0000002   0.2886752   0.0000000  )
        19           C   tau(  19) = (   2.0000002   0.8660255   0.0000000  )
        20           C   tau(  20) = (   2.5000002   1.1547006   0.0000000  )
        21           C   tau(  21) = (   2.5000002   1.7320509   0.0000000  )
        22           C   tau(  22) = (   2.0000002   2.0207261   0.0000000  )
        23           C   tau(  23) = (   2.0000002   2.5980764   0.0000000  )
        24           C   tau(  24) = (   2.5000002   2.8867516   0.0000000  )
        25           C   tau(  25) = (   1.1467548   0.8956798   1.2195123  )
        26           C   tau(  26) = (   0.5991456   1.0424556   1.2195123  )
        27           C   tau(  27) = (   0.4523898   1.5901556   1.2195123  )
        28           C   tau(  28) = (   0.8532454   1.9910718   1.2195123  )
        29           C   tau(  29) = (   1.4008545   1.8442960   1.2195123  )
        30           C   tau(  30) = (   1.5476103   1.2965959   1.2195123  )
        31           H   tau(  31) = (   1.2615134   0.4673949   1.2195123  )
        32           H   tau(  32) = (   0.2856197   0.7290164   1.2195123  )
        33           H   tau(  33) = (   0.0241488   1.7048389   1.2195123  )
        34           H   tau(  34) = (   0.7384868   2.4193567   1.2195123  )
        35           H   tau(  35) = (   1.7143805   2.1577351   1.2195123  )
        36           H   tau(  36) = (   1.9758513   1.1819126   1.2195123  )

     number of k points=    10  gaussian smearing, width (Ry)=  0.0200
                       cart. coord. in units 2pi/alat
        k(    1) = (   0.0000000   0.0000000   0.0000000), wk =   0.1250000
        k(    2) = (   0.0000000   0.0721688   0.0000000), wk =   0.2500000
        k(    3) = (   0.0000000  -0.1443376   0.0000000), wk =   0.1250000
        k(    4) = (   0.0833333   0.0000000   0.0000000), wk =   0.2500000
        k(    5) = (   0.0833333   0.0721688   0.0000000), wk =   0.2500000
        k(    6) = (   0.0833333  -0.1443376   0.0000000), wk =   0.2500000
        k(    7) = (  -0.1666667   0.0000000   0.0000000), wk =   0.1250000
        k(    8) = (  -0.1666667   0.0721688   0.0000000), wk =   0.2500000
        k(    9) = (  -0.1666667  -0.1443376   0.0000000), wk =   0.1250000
        k(   10) = (  -0.0833333   0.0721688   0.0000000), wk =   0.2500000

     Dense  grid:  1009261 G-vectors     FFT dimensions: (  81,  96, 270)

     Smooth grid:   255153 G-vectors     FFT dimensions: (  54,  60, 180)

     Estimated max dynamical RAM per process >     428.39 MB

     Estimated total dynamical RAM >       3.35 GB

     Initial potential from superposition of free atoms

     starting charge  125.99836, renormalised to  126.00000

     negative rho (up, down):  2.493E-04 0.000E+00


     %%%%%%%%%%%%%%%%%%%%%%%%%%%%%%%%%%%%%%%%%%%%%%%%%%%%%%%%%%%%%%%%%%%%%%%%
     %                                                                      %
     % You are using vdW-DF, which was implemented by the Thonhauser group. %
     % Please cite the following two papers that made this development      %
     % possible and the two reviews that describe the various versions:     %
     %                                                                      %
     %   T. Thonhauser et al., PRL 115, 136402 (2015).                      %
     %   T. Thonhauser et al., PRB 76, 125112 (2007).                       %
     %   K. Berland et al., Rep. Prog. Phys. 78, 066501 (2015).             %
     %   D.C. Langreth et al., J. Phys.: Condens. Matter 21, 084203 (2009). %
     %                                                                      %
     %                                                                      %
     % If you are calculating the stress with vdW-DF, please also cite:     %
     %                                                                      %
     %   R. Sabatini et al., J. Phys.: Condens. Matter 24, 424209 (2012).   %
     %                                                                      %
     %%%%%%%%%%%%%%%%%%%%%%%%%%%%%%%%%%%%%%%%%%%%%%%%%%%%%%%%%%%%%%%%%%%%%%%%


     Starting wfcs are  126 randomized atomic wfcs

     total cpu time spent up to now is       20.5 secs

     Self-consistent Calculation

     iteration #  1     ecut=    32.00 Ry     beta= 0.50
     Davidson diagonalization with overlap
     ethr =  1.00E-02,  avg # of iterations =  2.0

     negative rho (up, down):  2.114E-04 0.000E+00

     total cpu time spent up to now is       57.5 secs

     total energy              =    -350.85925721 Ry
     Harris-Foulkes estimate   =    -352.96127761 Ry
     estimated scf accuracy    <       4.24977908 Ry

     iteration #  2     ecut=    32.00 Ry     beta= 0.50
     Davidson diagonalization with overlap
     ethr =  3.37E-03,  avg # of iterations =  6.0

     negative rho (up, down):  5.157E-04 0.000E+00

     total cpu time spent up to now is       89.6 secs

     total energy              =    -351.19706063 Ry
     Harris-Foulkes estimate   =    -351.35256914 Ry
     estimated scf accuracy    <       0.39620869 Ry

     iteration #  3     ecut=    32.00 Ry     beta= 0.50
     Davidson diagonalization with overlap
     ethr =  3.14E-04,  avg # of iterations = 10.1

     negative rho (up, down):  4.311E-04 0.000E+00

     total cpu time spent up to now is      126.0 secs

     total energy              =    -351.23471669 Ry
     Harris-Foulkes estimate   =    -351.25332023 Ry
     estimated scf accuracy    <       0.05572218 Ry

     iteration #  4     ecut=    32.00 Ry     beta= 0.50
     Davidson diagonalization with overlap
     ethr =  4.42E-05,  avg # of iterations =  5.9

     negative rho (up, down):  2.844E-04 0.000E+00

     total cpu time spent up to now is      160.6 secs

     total energy              =    -351.24343592 Ry
     Harris-Foulkes estimate   =    -351.24954416 Ry
     estimated scf accuracy    <       0.01852020 Ry

     iteration #  5     ecut=    32.00 Ry     beta= 0.50
     Davidson diagonalization with overlap
     ethr =  1.47E-05,  avg # of iterations =  3.0

     negative rho (up, down):  3.001E-04 0.000E+00

     total cpu time spent up to now is      190.0 secs

     total energy              =    -351.24716153 Ry
     Harris-Foulkes estimate   =    -351.24743140 Ry
     estimated scf accuracy    <       0.00252827 Ry

     iteration #  6     ecut=    32.00 Ry     beta= 0.50
     Davidson diagonalization with overlap
     c_bands:  1 eigenvalues not converged
     ethr =  2.01E-06,  avg # of iterations =  6.9

     negative rho (up, down):  2.424E-04 0.000E+00

     total cpu time spent up to now is      222.6 secs

     total energy              =    -351.24752043 Ry
     Harris-Foulkes estimate   =    -351.24760126 Ry
     estimated scf accuracy    <       0.00027979 Ry

     iteration #  7     ecut=    32.00 Ry     beta= 0.50
     Davidson diagonalization with overlap
     ethr =  2.22E-07,  avg # of iterations =  2.2

     negative rho (up, down):  2.227E-04 0.000E+00

     total cpu time spent up to now is      250.4 secs

     total energy              =    -351.24757236 Ry
     Harris-Foulkes estimate   =    -351.24757066 Ry
     estimated scf accuracy    <       0.00002095 Ry

     iteration #  8     ecut=    32.00 Ry     beta= 0.50
     Davidson diagonalization with overlap
     ethr =  1.66E-08,  avg # of iterations =  2.5

     negative rho (up, down):  2.146E-04 0.000E+00

     total cpu time spent up to now is      283.1 secs

     total energy              =    -351.24757647 Ry
     Harris-Foulkes estimate   =    -351.24757778 Ry
     estimated scf accuracy    <       0.00000405 Ry

     iteration #  9     ecut=    32.00 Ry     beta= 0.50
     Davidson diagonalization with overlap
     ethr =  3.22E-09,  avg # of iterations =  2.2

     negative rho (up, down):  2.114E-04 0.000E+00

     total cpu time spent up to now is      312.1 secs

     End of self-consistent calculation

          k = 0.0000 0.0000 0.0000 ( 31971 PWs)   bands (ev):

   -21.9273 -20.4740 -20.4695 -20.0005 -19.9906 -19.5467 -18.5830 -18.5800
   -18.5796 -18.5788 -16.8421 -16.8060 -16.7116 -15.6528 -15.0729 -15.0720
   -15.0718 -15.0713 -13.2515 -13.2304 -13.0992 -13.0984 -13.0860 -13.0814
   -12.9573 -12.9572 -11.3320 -10.2801 -10.2799 -10.0238  -9.9337  -9.9318
    -9.6617  -9.3142  -9.1075  -9.1067  -9.0855  -9.0850  -8.9537  -8.9167
    -8.9163  -8.7434  -8.6380  -8.4110  -8.2342  -7.8472  -7.7253  -7.6001
    -7.5987  -7.0270  -6.7853  -6.7528  -6.2489  -6.2182  -6.1393  -6.0750
    -5.6284  -5.6274  -4.9073  -4.4377  -4.3236  -2.4038  -2.4029  -2.3521
    -2.3519  -0.7550  -0.0531   0.4226   0.4766   0.6932   1.3293   1.3472
     1.4169   1.5111   1.5842   1.9837

          k = 0.0000 0.0722 0.0000 ( 31929 PWs)   bands (ev):

   -21.8356 -21.1048 -19.9128 -19.9012 -19.6776 -19.5387 -19.1909 -19.1837
   -17.8161 -17.8154 -17.6020 -16.8101 -16.8061 -15.9434 -15.9431 -14.6615
   -14.5439 -14.5428 -13.6980 -13.6970 -13.2390 -13.2172 -12.4380 -12.4354
   -12.3704 -12.3687 -11.5656 -11.3236 -10.7409 -10.7401 -10.1379 -10.1378
    -9.9240  -9.6633  -9.3132  -9.1190  -8.8632  -8.6601  -8.6402  -8.6040
    -8.6004  -8.4338  -8.4303  -8.3536  -8.1634  -7.8109  -7.6328  -7.4367
    -7.0975  -6.9535  -6.9120  -6.7709  -6.6924  -6.6391  -5.9931  -5.8183
    -5.4537  -5.4090  -5.2836  -4.4358  -4.4045  -3.3669  -3.3576  -1.4139
    -1.4096  -0.1563   0.0895   0.2444   0.3401   0.7053   0.7360   0.8243
     1.3062   1.7947   1.8595   2.2160

          k = 0.0000-0.1443 0.0000 ( 31940 PWs)   bands (ev):

   -21.5713 -21.5502 -19.6801 -19.6467 -19.6456 -19.6199 -19.5004 -18.6968
   -18.6936 -16.9477 -16.9428 -16.9206 -16.9135 -16.7813 -16.7763 -14.1737
   -14.1723 -14.1532 -14.1509 -13.2552 -13.2179 -13.1702 -13.1473 -11.5626
   -11.5613 -11.5487 -11.5476 -11.3566 -11.3438 -11.3389 -11.3265 -11.2909
    -9.6664  -9.6294  -9.6099  -9.3127  -8.6842  -8.6358  -8.6104  -8.5750
    -8.3033  -8.2919  -8.2918  -8.2811  -7.6606  -7.3579  -7.3475  -7.3307
    -6.9901  -6.9672  -6.9067  -6.7474  -6.7044  -6.3654  -6.3276  -6.2991
    -6.2329  -4.7796  -4.7649  -4.4102  -4.4025  -4.1075  -4.0772  -0.5509
    -0.5400  -0.4640  -0.4521   0.3331   0.4487   0.6010   0.8733   1.1924
     1.2484   1.4114   1.5391   2.0776

          k = 0.0833 0.0000 0.0000 ( 31951 PWs)   bands (ev):

   -21.8050 -20.8330 -20.3547 -20.3497 -19.5691 -19.3983 -19.3787 -18.9284
   -17.5751 -17.5737 -16.8265 -16.8143 -16.6220 -16.2855 -15.7985 -15.5516
   -14.9004 -14.6381 -14.6362 -14.1432 -13.2256 -13.2208 -12.4232 -12.1776
   -11.7218 -11.5036 -11.5025 -11.2949 -10.1963  -9.9590  -9.9571  -9.8892
    -9.6683  -9.4626  -9.3144  -9.1719  -9.1702  -8.9952  -8.9938  -8.8679
    -8.7572  -8.7188  -8.6025  -8.2471  -8.1162  -8.0548  -8.0537  -7.6785
    -7.3081  -7.0930  -6.8678  -6.7359  -6.7122  -6.4535  -6.1007  -5.8887
    -5.3443  -5.2907  -4.7889  -4.4329  -4.2890  -3.6300  -3.3670  -1.4460
    -1.1088  -0.7864  -0.1839  -0.0823   0.1463   0.6267   0.6861   0.8678
     1.5189   1.7432   2.1356   2.2087

          k = 0.0833 0.0722 0.0000 ( 31951 PWs)   bands (ev):

   -21.7134 -20.9838 -20.7425 -20.0246 -19.5885 -19.5071 -18.8411 -18.6101
   -18.1528 -17.4921 -16.9134 -16.8134 -16.7956 -16.6125 -16.2492 -15.1543
   -14.6640 -14.5701 -14.0534 -13.9293 -13.2238 -13.2207 -12.2339 -12.2224
   -12.0022 -11.7924 -11.5296 -11.2876 -10.7396 -10.3551  -9.7884  -9.7430
    -9.7027  -9.6663  -9.3710  -9.3131  -9.1643  -8.9936  -8.8119  -8.7844
    -8.6625  -8.6443  -8.5216  -8.4901  -8.1708  -7.8349  -7.5363  -7.3606
    -7.3483  -6.9803  -6.7723  -6.7269  -6.4417  -6.3881  -6.1619  -6.0590
    -5.7860  -5.2205  -4.8485  -4.4532  -4.3768  -3.9353  -3.7299  -1.0893
    -0.7805  -0.6248  -0.1660   0.2601   0.3644   0.6396   0.8554   0.9969
     1.4370   1.5890   1.6811   1.9508

          k = 0.0833-0.1443 0.0000 ( 31876 PWs)   bands (ev):

   -21.4494 -21.4285 -20.4815 -20.4620 -19.5526 -18.5948 -18.5839 -18.5778
   -18.5658 -17.6773 -17.6725 -16.8199 -16.8105 -16.3271 -16.3094 -15.2661
   -15.2634 -13.2400 -13.2344 -13.1027 -13.1017 -13.0868 -13.0798 -13.0232
   -13.0038 -11.4120 -11.3960 -11.2764 -10.7204 -10.7095  -9.9374  -9.9267
    -9.6705  -9.4997  -9.4674  -9.3147  -9.1109  -9.1015  -9.0902  -9.0788
    -8.7510  -8.6901  -8.3300  -8.2772  -7.6052  -7.5955  -7.2844  -7.2710
    -7.1181  -6.7658  -6.7533  -6.6234  -6.6067  -6.2410  -6.1798  -6.1567
    -6.1110  -5.2330  -5.1600  -4.5961  -4.4293  -4.0589  -3.9599  -0.9737
    -0.9393   0.2295   0.3278   0.4762   0.5770   0.6430   1.0636   1.3292
     1.3434   1.3754   1.4102   1.4469

          k =-0.1667 0.0000 0.0000 ( 31854 PWs)   bands (ev):

   -21.4470 -21.4310 -20.0015 -20.0000 -19.9994 -19.9809 -19.5344 -17.6782
   -17.6723 -16.8596 -16.8361 -16.7267 -16.7017 -16.3333 -16.3024 -15.6526
   -15.6507 -15.2769 -15.2543 -13.2350 -13.2086 -13.0198 -13.0115 -11.4054
   -11.4022 -11.2532 -10.7232 -10.7065 -10.2868 -10.2846 -10.2758 -10.2746
    -9.6783  -9.4930  -9.4790  -9.3146  -8.9586  -8.9578  -8.9192  -8.9188
    -8.9140  -8.9097  -8.7379  -8.6985  -7.9653  -7.7396  -7.7304  -7.7263
    -7.2863  -7.2679  -6.8987  -6.7373  -6.7112  -6.6273  -6.6046  -5.3238
    -5.1090  -4.8955  -4.8904  -4.5691  -4.2038  -4.1617  -3.9162  -0.9972
    -0.9210  -0.7884  -0.7011   0.2613   0.4410   0.5682   0.6386   0.7873
     0.8676   1.3652   1.4084   2.1987

          k =-0.1667 0.0722 0.0000 ( 31908 PWs)   bands (ev):

   -21.3558 -21.3399 -20.6295 -20.6145 -19.5558 -19.2027 -19.1753 -17.5965
   -17.5904 -17.1714 -17.1605 -17.0158 -16.9987 -16.7960 -16.7949 -15.2514
   -15.2496 -14.3290 -14.3071 -13.5776 -13.5719 -13.2213 -13.2062 -11.5357
   -11.5156 -11.2515 -10.8332 -10.8316 -10.6198 -10.6029  -9.7519  -9.7413
    -9.6774  -9.3973  -9.3738  -9.3194  -9.2642  -9.2590  -9.2236  -9.2216
    -8.7747  -8.7599  -8.4645  -8.4351  -7.9138  -7.9087  -7.6475  -7.6357
    -7.2061  -6.8748  -6.7675  -6.6856  -6.6589  -6.6436  -6.6316  -5.2973
    -5.0894  -4.9822  -4.9274  -4.7813  -4.7210  -4.2002  -4.1978  -0.6397
    -0.5665  -0.3467  -0.2691   0.1209   0.2554   0.6492   0.7020   0.7456
     0.9806   1.4948   1.5212   1.6876

          k =-0.1667-0.1443 0.0000 ( 31784 PWs)   bands (ev):

   -21.0909 -21.0790 -21.0740 -21.0545 -19.5507 -18.2513 -18.2447 -18.2291
   -18.2267 -17.3700 -17.3608 -17.3484 -17.3426 -16.8081 -16.8069 -14.4713
   -14.4596 -14.4583 -14.4509 -13.2266 -13.2143 -12.9387 -12.9357 -12.9198
   -12.9019 -11.2443 -10.3161 -10.3053 -10.2926 -10.2706  -9.9501  -9.9388
    -9.9242  -9.9158  -9.6798  -9.3158  -9.1468  -9.1129  -9.0788  -9.0063
    -8.6604  -8.6176  -8.3886  -8.3867  -8.3861  -8.3753  -7.0910  -7.0704
    -7.0664  -7.0643  -7.0504  -6.7541  -6.7255  -5.9168  -5.7962  -5.7485
    -5.6988  -5.2478  -4.9904  -4.9674  -4.9366  -4.3209  -4.2071  -0.3630
    -0.1955  -0.1513  -0.1325   0.4434   0.6866   0.7741   1.0335   1.0672
     1.0723   1.1684   1.3046   1.3782

          k =-0.0833 0.0722 0.0000 ( 31951 PWs)   bands (ev):

   -21.7134 -20.9838 -20.7425 -20.0246 -19.5884 -19.5071 -18.8412 -18.6101
   -18.1527 -17.4920 -16.9127 -16.8139 -16.7963 -16.6122 -16.2493 -15.1542
   -14.6638 -14.5699 -14.0536 -13.9292 -13.2237 -13.2214 -12.2336 -12.2222
   -12.0022 -11.7923 -11.5293 -11.2881 -10.7395 -10.3551  -9.7884  -9.7435
    -9.7026  -9.6645  -9.3715  -9.3130  -9.1643  -8.9943  -8.8116  -8.7829
    -8.6611  -8.6478  -8.5238  -8.4905  -8.1706  -7.8403  -7.5362  -7.3552
    -7.3470  -6.9671  -6.7602  -6.7355  -6.4417  -6.4071  -6.1634  -6.0590
    -5.7869  -5.2160  -4.8468  -4.4558  -4.3758  -3.9352  -3.7307  -1.0875
    -0.7809  -0.6243  -0.1605   0.2656   0.3620   0.6302   0.8506   0.9971
     1.4515   1.6176   1.6885   1.9534

     the Fermi energy is    -2.3777 ev

!    total energy              =    -351.24757673 Ry
     Harris-Foulkes estimate   =    -351.24757710 Ry
     estimated scf accuracy    <       0.00000048 Ry

     The total energy is the sum of the following terms:

     one-electron contribution =   -4816.18018620 Ry
     hartree contribution      =    2428.03388287 Ry
     xc contribution           =    -112.31931949 Ry
     ewald contribution        =    2149.22084203 Ry
     smearing contrib. (-TS)   =      -0.00279594 Ry

     convergence has been achieved in   9 iterations

     Forces acting on atoms (cartesian axes, Ry/au):

     atom    1 type  1   force =    -0.00089947    0.00073502    0.00100842
     atom    2 type  1   force =     0.00074791   -0.00090752    0.00059207
     atom    3 type  1   force =     0.00356417    0.00293445   -0.00258068
     atom    4 type  1   force =    -0.00065970   -0.00067891   -0.01244575
     atom    5 type  1   force =    -0.00065122    0.00076527   -0.01245225
     atom    6 type  1   force =     0.00376507   -0.00271982   -0.00253664
     atom    7 type  1   force =     0.00088572    0.00082835    0.00098392
     atom    8 type  1   force =    -0.00090337   -0.00071085    0.00064162
     atom    9 type  1   force =     0.00090337    0.00071085    0.00064162
     atom   10 type  1   force =    -0.00008625    0.00421063   -0.00265403
     atom   11 type  1   force =    -0.00004700   -0.00064723   -0.01272993
     atom   12 type  1   force =     0.00065122   -0.00076527   -0.01245225
     atom   13 type  1   force =     0.00065970    0.00067891   -0.01244575
     atom   14 type  1   force =     0.00004700    0.00064723   -0.01272993
     atom   15 type  1   force =     0.00008625   -0.00421063   -0.00265403
     atom   16 type  1   force =     0.00089947   -0.00073502    0.00100842
     atom   17 type  1   force =     0.00007221   -0.00007565    0.00052615
     atom   18 type  1   force =    -0.00088572   -0.00082835    0.00098392
     atom   19 type  1   force =    -0.00376507    0.00271982   -0.00253664
     atom   20 type  1   force =     0.00010811    0.00045526    0.00110273
     atom   21 type  1   force =    -0.00010811   -0.00045526    0.00110273
     atom   22 type  1   force =    -0.00356417   -0.00293445   -0.00258068
     atom   23 type  1   force =    -0.00074791    0.00090752    0.00059207
     atom   24 type  1   force =    -0.00007221    0.00007565    0.00052615
     atom   25 type  1   force =     0.00116019   -0.00316461    0.01350750
     atom   26 type  1   force =    -0.00281062   -0.00187782    0.01349784
     atom   27 type  1   force =    -0.00355511    0.00020890    0.01350903
     atom   28 type  1   force =    -0.00116019    0.00316461    0.01350750
     atom   29 type  1   force =     0.00281062    0.00187782    0.01349784
     atom   30 type  1   force =     0.00355511   -0.00020890    0.01350903
     atom   31 type  2   force =    -0.00124587    0.00507842   -0.00002010
     atom   32 type  2   force =     0.00365860    0.00336103   -0.00001694
     atom   33 type  2   force =     0.00499841   -0.00110652    0.00006704
     atom   34 type  2   force =     0.00124587   -0.00507842   -0.00002010
     atom   35 type  2   force =    -0.00365860   -0.00336103   -0.00001694
     atom   36 type  2   force =    -0.00499841    0.00110652    0.00006704

     Total force =     0.049516     Total SCF correction =     0.001661

     BFGS Geometry Optimization

     number of scf cycles    =   1
     number of bfgs steps    =   0

     energy   new            =    -351.2475767288 Ry

     new trust radius        =       0.0139705544 bohr
     new conv_thr            =       0.0000010000 Ry


ATOMIC_POSITIONS (angstrom)
C        1.229524022   0.000388954   0.000533632
C        0.000395777   0.709660594   0.000313311
C        0.001886076   2.131975339  -0.001365637
C        1.229650903   2.840204060  -0.006586006
C        1.229655388   4.261249948  -0.006589448
C        0.001992389   4.969546551  -0.001342335
C        0.000468702   6.391705825   0.000520669
C        1.229521957   7.101032144   0.000339531
C        3.690478043   0.000376167   0.000339531
C        2.459954356   0.712368999  -0.001404452
C        2.459975127   2.130079992  -0.006736391
C        3.690344612   2.840158363  -0.006589448
C        3.690349097   4.261204251  -0.006586006
C        2.460024873   4.971328319  -0.006736391
C        2.460045644   6.389039312  -0.001404452
C        3.690475978   7.101019357   0.000533632
C        6.150038214  -0.000040034   0.000278425
C        4.919531298   0.709702486   0.000520669
C        4.918007611   2.131861760  -0.001342335
C        6.150057210   2.840804235   0.000583542
C        6.149942790   4.260604076   0.000583542
C        4.918113924   4.969432972  -0.001365637
C        4.919604223   6.391747717   0.000313311
C        6.149961786   7.101448345   0.000278425
C        2.821630489   2.201697426   3.007147859
C        1.472410789   2.563446859   3.007142749
C        1.110997627   3.911893085   3.007148672
C        2.098369511   4.899710885   3.007147859
C        3.447589211   4.537961452   3.007142749
C        3.809002373   3.189515226   3.007148672
H        3.102663349   1.152478773   2.999989366
H        0.704560430   1.795158882   2.999991033
H        0.062051189   4.193317903   3.000035478
H        1.817336651   5.948929538   2.999989366
H        4.215439570   5.306249429   2.999991033
H        4.857948811   2.908090408   3.000035478



     Writing output data file batch_graph+benzene.save/
     NEW-OLD atomic charge density approx. for the potential

     negative rho (up, down):  2.107E-04 0.000E+00

     total cpu time spent up to now is      326.7 secs

     Self-consistent Calculation

     iteration #  1     ecut=    32.00 Ry     beta= 0.50
     Davidson diagonalization with overlap
     ethr =  1.00E-06,  avg # of iterations =  3.7

     negative rho (up, down):  2.109E-04 0.000E+00

     total cpu time spent up to now is      374.3 secs

     total energy              =    -351.24965987 Ry
     Harris-Foulkes estimate   =    -351.24986158 Ry
     estimated scf accuracy    <       0.00046157 Ry

     iteration #  2     ecut=    32.00 Ry     beta= 0.50
     Davidson diagonalization with overlap
     ethr =  3.66E-07,  avg # of iterations =  2.0

     negative rho (up, down):  2.110E-04 0.000E+00

     total cpu time spent up to now is      404.6 secs

     total energy              =    -351.24973015 Ry
     Harris-Foulkes estimate   =    -351.24974005 Ry
     estimated scf accuracy    <       0.00004953 Ry

     iteration #  3     ecut=    32.00 Ry     beta= 0.50
     Davidson diagonalization with overlap
     ethr =  3.93E-08,  avg # of iterations =  2.0

     negative rho (up, down):  2.122E-04 0.000E+00

     total cpu time spent up to now is      433.9 secs

     total energy              =    -351.24973691 Ry
     Harris-Foulkes estimate   =    -351.24973786 Ry
     estimated scf accuracy    <       0.00001015 Ry

     iteration #  4     ecut=    32.00 Ry     beta= 0.50
     Davidson diagonalization with overlap
     ethr =  8.05E-09,  avg # of iterations =  2.0

     negative rho (up, down):  2.123E-04 0.000E+00

     total cpu time spent up to now is      463.6 secs

     total energy              =    -351.24973843 Ry
     Harris-Foulkes estimate   =    -351.24973866 Ry
     estimated scf accuracy    <       0.00000188 Ry

     iteration #  5     ecut=    32.00 Ry     beta= 0.50
     Davidson diagonalization with overlap
     ethr =  1.50E-09,  avg # of iterations =  2.2

     negative rho (up, down):  2.111E-04 0.000E+00

     total cpu time spent up to now is      492.4 secs

     End of self-consistent calculation

          k = 0.0000 0.0000 0.0000 ( 31971 PWs)   bands (ev):

   -21.9317 -20.4782 -20.4739 -20.0010 -19.9984 -19.5260 -18.5909 -18.5909
   -18.5812 -18.5773 -16.8370 -16.8053 -16.7169 -15.6536 -15.0886 -15.0849
   -15.0689 -15.0653 -13.2618 -13.2379 -13.1100 -13.0983 -13.0979 -13.0834
   -12.9656 -12.9596 -11.3417 -10.2988 -10.2792 -10.0263  -9.9349  -9.9334
    -9.7030  -9.2992  -9.1103  -9.1039  -9.0953  -9.0908  -8.9623  -8.9233
    -8.9098  -8.7517  -8.6516  -8.4081  -8.2385  -7.8410  -7.7323  -7.6090
    -7.6078  -7.0259  -6.7923  -6.7668  -6.2539  -6.2172  -6.1450  -6.0771
    -5.6391  -5.6269  -4.9051  -4.4409  -4.3302  -2.4218  -2.4167  -2.3486
    -2.3431  -0.7514  -0.0445   0.4188   0.4669   0.6919   1.3165   1.3442
     1.4047   1.5048   1.5860   1.9859

          k = 0.0000 0.0722 0.0000 ( 31929 PWs)   bands (ev):

   -21.8400 -21.1092 -19.9115 -19.9105 -19.6785 -19.5217 -19.2012 -19.1828
   -17.8249 -17.8158 -17.6066 -16.8060 -16.8036 -15.9512 -15.9450 -14.6633
   -14.5520 -14.5455 -13.7083 -13.6977 -13.2498 -13.2268 -12.4435 -12.4381
   -12.3826 -12.3695 -11.5676 -11.3335 -10.7564 -10.7395 -10.1424 -10.1415
    -9.9263  -9.7046  -9.2982  -9.1210  -8.8712  -8.6681  -8.6518  -8.6130
    -8.5973  -8.4397  -8.4293  -8.3571  -8.1720  -7.8004  -7.6394  -7.4366
    -7.0979  -6.9631  -6.9182  -6.7807  -6.7030  -6.6447  -5.9920  -5.8298
    -5.4504  -5.4119  -5.2866  -4.4395  -4.4063  -3.3749  -3.3633  -1.4191
    -1.4117  -0.1519   0.0964   0.2472   0.3331   0.6871   0.7229   0.8226
     1.3116   1.8003   1.8586   2.2173

          k = 0.0000-0.1443 0.0000 ( 31940 PWs)   bands (ev):

   -21.5739 -21.5564 -19.6704 -19.6537 -19.6438 -19.6336 -19.4881 -18.7007
   -18.6988 -16.9472 -16.9443 -16.9244 -16.9209 -16.7835 -16.7740 -14.1788
   -14.1732 -14.1664 -14.1533 -13.2636 -13.2276 -13.1718 -13.1532 -11.5743
   -11.5637 -11.5579 -11.5498 -11.3605 -11.3492 -11.3392 -11.3345 -11.3007
    -9.7069  -9.6306  -9.6134  -9.2977  -8.6925  -8.6489  -8.6138  -8.5891
    -8.3079  -8.2967  -8.2958  -8.2793  -7.6452  -7.3649  -7.3530  -7.3306
    -6.9941  -6.9628  -6.9126  -6.7548  -6.7181  -6.3673  -6.3337  -6.3142
    -6.2395  -4.7692  -4.7578  -4.4185  -4.4052  -4.1207  -4.0880  -0.5526
    -0.5437  -0.4691  -0.4511   0.3355   0.4389   0.5877   0.8821   1.1905
     1.2514   1.4071   1.5338   2.0845

          k = 0.0833 0.0000 0.0000 ( 31951 PWs)   bands (ev):

   -21.8094 -20.8374 -20.3589 -20.3540 -19.5491 -19.4030 -19.3820 -18.9331
   -17.5796 -17.5781 -16.8201 -16.8138 -16.6287 -16.2902 -15.8054 -15.5525
   -14.9012 -14.6439 -14.6423 -14.1505 -13.2365 -13.2302 -12.4256 -12.1846
   -11.7303 -11.5089 -11.5081 -11.3050 -10.1974  -9.9603  -9.9589  -9.8914
    -9.7095  -9.4704  -9.2994  -9.1756  -9.1748  -8.9990  -8.9978  -8.8731
    -8.7665  -8.7281  -8.6101  -8.2455  -8.1200  -8.0636  -8.0627  -7.6783
    -7.3031  -7.0958  -6.8737  -6.7474  -6.7211  -6.4588  -6.1121  -5.8874
    -5.3418  -5.2900  -4.7861  -4.4372  -4.2972  -3.6362  -3.3768  -1.4458
    -1.1147  -0.7828  -0.1845  -0.0868   0.1531   0.6100   0.6698   0.8665
     1.5212   1.7456   2.1315   2.2079

          k = 0.0833 0.0722 0.0000 ( 31951 PWs)   bands (ev):

   -21.7178 -20.9882 -20.7469 -20.0287 -19.5804 -19.4984 -18.8459 -18.6148
   -18.1574 -17.4967 -16.9147 -16.8090 -16.7962 -16.6180 -16.2537 -15.1605
   -14.6707 -14.5724 -14.0559 -13.9353 -13.2343 -13.2306 -12.2408 -12.2269
   -12.0094 -11.7956 -11.5319 -11.2978 -10.7455 -10.3605  -9.7905  -9.7462
    -9.7186  -9.6944  -9.3783  -9.2985  -9.1722  -8.9961  -8.8187  -8.7878
    -8.6701  -8.6534  -8.5276  -8.4915  -8.1749  -7.8333  -7.5378  -7.3615
    -7.3563  -6.9814  -6.7842  -6.7361  -6.4481  -6.3924  -6.1652  -6.0631
    -5.7872  -5.2209  -4.8439  -4.4539  -4.3828  -3.9465  -3.7368  -1.0948
    -0.7816  -0.6278  -0.1629   0.2646   0.3631   0.6216   0.8409   0.9952
     1.4418   1.5914   1.6757   1.9432

          k = 0.0833-0.1443 0.0000 ( 31876 PWs)   bands (ev):

   -21.4521 -21.4347 -20.4841 -20.4682 -19.5310 -18.5971 -18.5906 -18.5830
   -18.5700 -17.6812 -17.6779 -16.8190 -16.8046 -16.3308 -16.3142 -15.2718
   -15.2711 -13.2483 -13.2434 -13.1095 -13.1018 -13.0892 -13.0875 -13.0265
   -13.0108 -11.4153 -11.4052 -11.2871 -10.7233 -10.7138  -9.9413  -9.9360
    -9.7117  -9.5007  -9.4701  -9.2996  -9.1143  -9.1053  -9.0970  -9.0872
    -8.7619  -8.6981  -8.3302  -8.2802  -7.6107  -7.5954  -7.2905  -7.2700
    -7.1126  -6.7767  -6.7639  -6.6271  -6.6192  -6.2450  -6.1835  -6.1576
    -6.1159  -5.2320  -5.1616  -4.5942  -4.4308  -4.0667  -3.9709  -0.9769
    -0.9454   0.2330   0.3276   0.4775   0.5659   0.6323   1.0703   1.3239
     1.3344   1.3738   1.4123   1.4358

          k =-0.1667 0.0000 0.0000 ( 31854 PWs)   bands (ev):

   -21.4488 -21.4381 -20.0074 -19.9993 -19.9972 -19.9941 -19.5145 -17.6827
   -17.6770 -16.8580 -16.8299 -16.7300 -16.7073 -16.3381 -16.3113 -15.6592
   -15.6573 -15.2707 -15.2622 -13.2436 -13.2193 -13.0275 -13.0204 -11.4068
   -11.4039 -11.2637 -10.7325 -10.7120 -10.2945 -10.2919 -10.2738 -10.2735
    -9.7194  -9.4946  -9.4810  -9.2994  -8.9624  -8.9581  -8.9368  -8.9258
    -8.9244  -8.9066  -8.7495  -8.7076  -7.9554  -7.7376  -7.7368  -7.7346
    -7.3022  -7.2732  -6.9024  -6.7496  -6.7216  -6.6189  -6.6116  -5.3162
    -5.1126  -4.8916  -4.8862  -4.5688  -4.2173  -4.1704  -3.9298  -0.9988
    -0.9150  -0.7905  -0.7071   0.2600   0.4339   0.5707   0.6226   0.7667
     0.8726   1.3638   1.4074   2.2027

          k =-0.1667 0.0722 0.0000 ( 31908 PWs)   bands (ev):

   -21.3576 -21.3469 -20.6312 -20.6216 -19.5343 -19.2042 -19.1829 -17.6009
   -17.5950 -17.1732 -17.1673 -17.0183 -17.0024 -16.7980 -16.7908 -15.2575
   -15.2558 -14.3255 -14.3153 -13.5840 -13.5784 -13.2314 -13.2168 -11.5318
   -11.5243 -11.2618 -10.8360 -10.8344 -10.6291 -10.6088  -9.7621  -9.7503
    -9.7151  -9.3987  -9.3757  -9.3065  -9.2667  -9.2632  -9.2274  -9.2253
    -8.7811  -8.7702  -8.4671  -8.4379  -7.9197  -7.9138  -7.6609  -7.6387
    -7.2005  -6.8784  -6.7799  -6.6924  -6.6544  -6.6521  -6.6407  -5.2886
    -5.0908  -4.9757  -4.9287  -4.7851  -4.7273  -4.2140  -4.2089  -0.6412
    -0.5709  -0.3483  -0.2652   0.1189   0.2477   0.6506   0.6847   0.7253
     0.9857   1.4924   1.5199   1.6929

          k =-0.1667-0.1443 0.0000 ( 31784 PWs)   bands (ev):

   -21.0925 -21.0827 -21.0760 -21.0650 -19.5289 -18.2536 -18.2452 -18.2367
   -18.2347 -17.3724 -17.3632 -17.3543 -17.3492 -16.8089 -16.8012 -14.4751
   -14.4658 -14.4645 -14.4594 -13.2359 -13.2243 -12.9340 -12.9338 -12.9280
   -12.9114 -11.2547 -10.3219 -10.3063 -10.3060 -10.2814  -9.9545  -9.9429
    -9.9266  -9.9186  -9.7207  -9.3008  -9.1459  -9.1167  -9.0825  -9.0083
    -8.6702  -8.6256  -8.4033  -8.3942  -8.3869  -8.3767  -7.0867  -7.0743
    -7.0715  -7.0606  -7.0596  -6.7638  -6.7387  -5.9162  -5.7994  -5.7522
    -5.7049  -5.2390  -4.9901  -4.9703  -4.9403  -4.3275  -4.2209  -0.3602
    -0.1995  -0.1580  -0.1389   0.4403   0.6703   0.7723   1.0274   1.0683
     1.0705   1.1694   1.2902   1.3840

          k =-0.0833 0.0722 0.0000 ( 31951 PWs)   bands (ev):

   -21.7178 -20.9882 -20.7469 -20.0287 -19.5803 -19.4984 -18.8459 -18.6148
   -18.1574 -17.4966 -16.9138 -16.8106 -16.7959 -16.6177 -16.2538 -15.1604
   -14.6706 -14.5722 -14.0562 -13.9352 -13.2342 -13.2313 -12.2405 -12.2267
   -12.0095 -11.7955 -11.5316 -11.2983 -10.7455 -10.3605  -9.7906  -9.7470
    -9.7176  -9.6931  -9.3788  -9.2985  -9.1722  -8.9967  -8.8182  -8.7865
    -8.6685  -8.6567  -8.5300  -8.4918  -8.1746  -7.8386  -7.5378  -7.3597
    -7.3513  -6.9687  -6.7700  -6.7473  -6.4482  -6.4105  -6.1669  -6.0630
    -5.7880  -5.2164  -4.8419  -4.4574  -4.3811  -3.9462  -3.7376  -1.0930
    -0.7816  -0.6275  -0.1577   0.2701   0.3587   0.6164   0.8346   0.9954
     1.4563   1.6186   1.6836   1.9452

     the Fermi energy is    -2.3825 ev

!    total energy              =    -351.24973865 Ry
     Harris-Foulkes estimate   =    -351.24973889 Ry
     estimated scf accuracy    <       0.00000042 Ry

     The total energy is the sum of the following terms:

     one-electron contribution =   -4812.46573522 Ry
     hartree contribution      =    2426.16729010 Ry
     xc contribution           =    -112.32438607 Ry
     ewald contribution        =    2147.37586241 Ry
     smearing contrib. (-TS)   =      -0.00276987 Ry

     convergence has been achieved in   5 iterations

     Forces acting on atoms (cartesian axes, Ry/au):

     atom    1 type  1   force =     0.00062865    0.00040353    0.00079306
     atom    2 type  1   force =     0.00133343    0.00042901    0.00077872
     atom    3 type  1   force =     0.00006266   -0.00027882   -0.00292843
     atom    4 type  1   force =     0.00143882    0.00135941   -0.01135095
     atom    5 type  1   force =     0.00152107   -0.00129140   -0.01135365
     atom    6 type  1   force =     0.00000984    0.00026554   -0.00284464
     atom    7 type  1   force =     0.00141572   -0.00043077    0.00121409
     atom    8 type  1   force =     0.00075490   -0.00041287    0.00064357
     atom    9 type  1   force =    -0.00075490    0.00041287    0.00064357
     atom   10 type  1   force =    -0.00001473    0.00063827   -0.00328647
     atom   11 type  1   force =    -0.00004535    0.00144211   -0.01169247
     atom   12 type  1   force =    -0.00152107    0.00129140   -0.01135365
     atom   13 type  1   force =    -0.00143882   -0.00135941   -0.01135095
     atom   14 type  1   force =     0.00004535   -0.00144211   -0.01169247
     atom   15 type  1   force =     0.00001473   -0.00063827   -0.00328647
     atom   16 type  1   force =    -0.00062865   -0.00040353    0.00079306
     atom   17 type  1   force =    -0.00007998    0.00003093    0.00097512
     atom   18 type  1   force =    -0.00141572    0.00043077    0.00121409
     atom   19 type  1   force =    -0.00000984   -0.00026554   -0.00284464
     atom   20 type  1   force =    -0.00014849    0.00084072    0.00056277
     atom   21 type  1   force =     0.00014849   -0.00084072    0.00056277
     atom   22 type  1   force =    -0.00006266    0.00027882   -0.00292843
     atom   23 type  1   force =    -0.00133343   -0.00042901    0.00077872
     atom   24 type  1   force =     0.00007998   -0.00003093    0.00097512
     atom   25 type  1   force =    -0.00148679    0.00554140    0.01237591
     atom   26 type  1   force =     0.00389789    0.00296169    0.01237047
     atom   27 type  1   force =     0.00471739   -0.00081806    0.01239201
     atom   28 type  1   force =     0.00148679   -0.00554140    0.01237591
     atom   29 type  1   force =    -0.00389789   -0.00296169    0.01237047
     atom   30 type  1   force =    -0.00471739    0.00081806    0.01239201
     atom   31 type  2   force =     0.00020398   -0.00027411    0.00042299
     atom   32 type  2   force =    -0.00019048   -0.00041009    0.00042555
     atom   33 type  2   force =    -0.00043965    0.00025596    0.00050234
     atom   34 type  2   force =    -0.00020398    0.00027411    0.00042299
     atom   35 type  2   force =     0.00019048    0.00041009    0.00042555
     atom   36 type  2   force =     0.00043965   -0.00025596    0.00050234

     Total force =     0.044358     Total SCF correction =     0.001657

     number of scf cycles    =   2
     number of bfgs steps    =   1

     energy   old            =    -351.2475767288 Ry
     energy   new            =    -351.2497386482 Ry

     CASE: energy  _new < energy  _old

     new trust radius        =       0.0153676098 bohr
     new conv_thr            =       0.0000010000 Ry


ATOMIC_POSITIONS (angstrom)
C        1.229441208   0.000744743   0.001096969
C        0.001047677   0.709512564   0.000742409
C        0.003016374   2.132802152  -0.003089645
C        1.229897287   2.840419512  -0.014029632
C        1.229930246   4.261082769  -0.014035950
C        0.003168697   4.968782447  -0.003026301
C        0.001189391   6.391828634   0.001208624
C        1.229477584   7.100680951   0.000741616
C        3.690522416   0.000727360   0.000741616
C        2.459922852   0.713881543  -0.003263779
C        2.459946236   2.130331292  -0.014375846
C        3.690069754   2.840325542  -0.014035950
C        3.690102713   4.260988799  -0.014029632
C        2.460053764   4.971077019  -0.014375846
C        2.460077148   6.387526768  -0.003263779
C        3.690558792   7.100663569   0.001096969
C        6.150035592  -0.000053892   0.000748673
C        4.918810609   0.709579677   0.001208624
C        4.916831303   2.132625864  -0.003026301
C        6.150044254   2.841210175   0.001103934
C        6.149955746   4.260198136   0.001103934
C        4.916983626   4.968606159  -0.003089645
C        4.918952323   6.391895748   0.000742409
C        6.149964408   7.101462203   0.000748673
C        2.821524995   2.202451928   3.015244284
C        1.472759351   2.563792020   3.015234457
C        1.111371616   3.911701218   3.015250633
C        2.098475005   4.898956383   3.015244284
C        3.447240649   4.537616291   3.015234457
C        3.808628384   3.189707093   3.015250633
H        3.102339198   1.153975139   3.000115970
H        0.705640639   1.796077384   3.000119425
H        0.063470623   4.193053506   3.000214160
H        1.817660802   5.947433172   3.000115970
H        4.214359361   5.305330927   3.000119425
H        4.856529377   2.908354805   3.000214160



     Writing output data file batch_graph+benzene.save/
     NEW-OLD atomic charge density approx. for the potential

     negative rho (up, down):  2.099E-04 0.000E+00

     total cpu time spent up to now is      507.2 secs

     Self-consistent Calculation

     iteration #  1     ecut=    32.00 Ry     beta= 0.50
     Davidson diagonalization with overlap
     ethr =  1.00E-06,  avg # of iterations =  4.0

     negative rho (up, down):  2.101E-04 0.000E+00

     total cpu time spent up to now is      555.0 secs

     total energy              =    -351.25171749 Ry
     Harris-Foulkes estimate   =    -351.25194001 Ry
     estimated scf accuracy    <       0.00050459 Ry

     iteration #  2     ecut=    32.00 Ry     beta= 0.50
     Davidson diagonalization with overlap
     ethr =  4.00E-07,  avg # of iterations =  2.0

     negative rho (up, down):  2.105E-04 0.000E+00

     total cpu time spent up to now is      585.4 secs

     total energy              =    -351.25180280 Ry
     Harris-Foulkes estimate   =    -351.25181556 Ry
     estimated scf accuracy    <       0.00005772 Ry

     iteration #  3     ecut=    32.00 Ry     beta= 0.50
     Davidson diagonalization with overlap
     ethr =  4.58E-08,  avg # of iterations =  2.0

     negative rho (up, down):  2.109E-04 0.000E+00

     total cpu time spent up to now is      615.3 secs

     total energy              =    -351.25181129 Ry
     Harris-Foulkes estimate   =    -351.25181286 Ry
     estimated scf accuracy    <       0.00001315 Ry

     iteration #  4     ecut=    32.00 Ry     beta= 0.50
     Davidson diagonalization with overlap
     ethr =  1.04E-08,  avg # of iterations =  2.0

     negative rho (up, down):  2.116E-04 0.000E+00

     total cpu time spent up to now is      644.5 secs

     total energy              =    -351.25181320 Ry
     Harris-Foulkes estimate   =    -351.25181386 Ry
     estimated scf accuracy    <       0.00000335 Ry

     iteration #  5     ecut=    32.00 Ry     beta= 0.50
     Davidson diagonalization with overlap
     ethr =  2.66E-09,  avg # of iterations =  2.2

     negative rho (up, down):  2.104E-04 0.000E+00

     total cpu time spent up to now is      672.6 secs

     End of self-consistent calculation

          k = 0.0000 0.0000 0.0000 ( 31971 PWs)   bands (ev):

   -21.9353 -20.4825 -20.4769 -20.0077 -19.9986 -19.5330 -18.5986 -18.5963
   -18.5819 -18.5791 -16.8388 -16.8101 -16.7229 -15.6566 -15.0984 -15.0936
   -15.0681 -15.0636 -13.2644 -13.2407 -13.1155 -13.1075 -13.0985 -13.0861
   -12.9714 -12.9621 -11.3480 -10.3087 -10.2791 -10.0282  -9.9373  -9.9372
    -9.7049  -9.3022  -9.1128  -9.1027  -9.1026  -9.0971  -8.9675  -8.9299
    -8.9098  -8.7543  -8.6567  -8.4069  -8.2395  -7.8391  -7.7365  -7.6133
    -7.6128  -7.0393  -6.7938  -6.7666  -6.2560  -6.2157  -6.1489  -6.0843
    -5.6443  -5.6298  -4.9035  -4.4503  -4.3433  -2.4312  -2.4250  -2.3488
    -2.3421  -0.7503  -0.0416   0.4254   0.4669   0.6896   1.3097   1.3409
     1.3947   1.4981   1.5861   1.9884

          k = 0.0000 0.0722 0.0000 ( 31929 PWs)   bands (ev):

   -21.8436 -21.1129 -19.9181 -19.9108 -19.6814 -19.5290 -19.2079 -19.1845
   -17.8313 -17.8170 -17.6102 -16.8106 -16.8075 -15.9570 -15.9476 -14.6666
   -14.5579 -14.5476 -13.7152 -13.6988 -13.2532 -13.2306 -12.4493 -12.4399
   -12.3909 -12.3703 -11.5709 -11.3399 -10.7654 -10.7396 -10.1466 -10.1450
    -9.9278  -9.7063  -9.3013  -9.1225  -8.8759  -8.6693  -8.6560  -8.6203
    -8.5971  -8.4454  -8.4314  -8.3610  -8.1766  -7.7966  -7.6431  -7.4375
    -7.1036  -6.9680  -6.9215  -6.7821  -6.7037  -6.6574  -5.9949  -5.8354
    -5.4479  -5.4132  -5.2895  -4.4486  -4.4167  -3.3818  -3.3694  -1.4226
    -1.4138  -0.1476   0.0990   0.2536   0.3311   0.6763   0.7161   0.8203
     1.3143   1.8002   1.8571   2.2173

          k = 0.0000-0.1443 0.0000 ( 31940 PWs)   bands (ev):

   -21.5740 -21.5636 -19.6729 -19.6570 -19.6438 -19.6406 -19.4971 -18.7053
   -18.7017 -16.9524 -16.9438 -16.9295 -16.9228 -16.7902 -16.7796 -14.1811
   -14.1774 -14.1716 -14.1577 -13.2662 -13.2313 -13.1729 -13.1601 -11.5834
   -11.5710 -11.5566 -11.5520 -11.3643 -11.3518 -11.3424 -11.3393 -11.3084
    -9.7086  -9.6329  -9.6140  -9.3008  -8.6937  -8.6534  -8.6138  -8.5993
    -8.3160  -8.3024  -8.2934  -8.2827  -7.6415  -7.3693  -7.3560  -7.3285
    -6.9963  -6.9663  -6.9251  -6.7590  -6.7202  -6.3672  -6.3365  -6.3218
    -6.2467  -4.7645  -4.7550  -4.4219  -4.4080  -4.1378  -4.1043  -0.5513
    -0.5421  -0.4728  -0.4554   0.3373   0.4391   0.5849   0.8839   1.1884
     1.2517   1.4049   1.5243   2.0837

          k = 0.0833 0.0000 0.0000 ( 31951 PWs)   bands (ev):

   -21.8130 -20.8411 -20.3630 -20.3571 -19.5542 -19.4060 -19.3884 -18.9370
   -17.5840 -17.5810 -16.8225 -16.8185 -16.6340 -16.2943 -15.8101 -15.5555
   -14.9043 -14.6474 -14.6472 -14.1549 -13.2396 -13.2343 -12.4291 -12.1888
   -11.7351 -11.5133 -11.5121 -11.3116 -10.2006  -9.9634  -9.9626  -9.8926
    -9.7113  -9.4749  -9.3025  -9.1796  -9.1787  -9.0029  -9.0022  -8.8761
    -8.7710  -8.7313  -8.6115  -8.2451  -8.1212  -8.0681  -8.0678  -7.6815
    -7.3058  -7.0975  -6.8819  -6.7511  -6.7226  -6.4655  -6.1175  -5.8903
    -5.3407  -5.2896  -4.7849  -4.4466  -4.3096  -3.6437  -3.3842  -1.4477
    -1.1177  -0.7821  -0.1809  -0.0893   0.1556   0.6042   0.6631   0.8643
     1.5233   1.7463   2.1286   2.2069

          k = 0.0833 0.0722 0.0000 ( 31951 PWs)   bands (ev):

   -21.7214 -20.9919 -20.7505 -20.0323 -19.5840 -19.5053 -18.8498 -18.6187
   -18.1613 -17.5004 -16.9170 -16.8132 -16.8009 -16.6231 -16.2578 -15.1648
   -14.6750 -14.5757 -14.0593 -13.9394 -13.2375 -13.2346 -12.2452 -12.2309
   -12.0140 -11.7991 -11.5354 -11.3044 -10.7497 -10.3647  -9.7922  -9.7488
    -9.7205  -9.6988  -9.3828  -9.3016  -9.1769  -8.9978  -8.8221  -8.7919
    -8.6723  -8.6575  -8.5288  -8.4947  -8.1787  -7.8329  -7.5412  -7.3654
    -7.3597  -6.9937  -6.7841  -6.7386  -6.4530  -6.3956  -6.1682  -6.0669
    -5.7890  -5.2207  -4.8415  -4.4614  -4.3910  -3.9584  -3.7454  -1.0973
    -0.7819  -0.6297  -0.1608   0.2670   0.3661   0.6163   0.8312   0.9928
     1.4445   1.5938   1.6706   1.9376

          k = 0.0833-0.1443 0.0000 ( 31876 PWs)   bands (ev):

   -21.4521 -21.4419 -20.4842 -20.4755 -19.5377 -18.6005 -18.5969 -18.5827
   -18.5761 -17.6857 -17.6810 -16.8233 -16.8082 -16.3323 -16.3212 -15.2769
   -15.2745 -13.2506 -13.2462 -13.1164 -13.1065 -13.0905 -13.0900 -13.0279
   -13.0189 -11.4160 -11.4125 -11.2943 -10.7248 -10.7199  -9.9452  -9.9407
    -9.7135  -9.5030  -9.4708  -9.3027  -9.1150  -9.1066  -9.1054  -9.0940
    -8.7663  -8.6994  -8.3308  -8.2805  -7.6136  -7.5998  -7.2937  -7.2741
    -7.1244  -6.7773  -6.7644  -6.6303  -6.6258  -6.2458  -6.1873  -6.1571
    -6.1223  -5.2302  -5.1643  -4.5960  -4.4379  -4.0760  -3.9861  -0.9768
    -0.9494   0.2411   0.3310   0.4792   0.5624   0.6247   1.0716   1.3207
     1.3276   1.3721   1.4118   1.4274

          k =-0.1667 0.0000 0.0000 ( 31854 PWs)   bands (ev):

   -21.4496 -21.4445 -20.0118 -20.0031 -20.0028 -19.9943 -19.5224 -17.6865
   -17.6806 -16.8601 -16.8317 -16.7338 -16.7150 -16.3393 -16.3196 -15.6628
   -15.6621 -15.2695 -15.2694 -13.2467 -13.2227 -13.0319 -13.0260 -11.4095
   -11.4076 -11.2706 -10.7379 -10.7154 -10.3055 -10.2984 -10.2766 -10.2679
    -9.7212  -9.4963  -9.4824  -9.3026  -8.9661  -8.9606  -8.9477  -8.9296
    -8.9286  -8.9072  -8.7525  -8.7102  -7.9512  -7.7401  -7.7388  -7.7366
    -7.3094  -7.2764  -6.9218  -6.7499  -6.7231  -6.6183  -6.6182  -5.3123
    -5.1161  -4.8897  -4.8828  -4.5711  -4.2372  -4.1735  -3.9464  -0.9979
    -0.9162  -0.7886  -0.7117   0.2641   0.4290   0.5725   0.6183   0.7535
     0.8746   1.3616   1.4055   2.2032

          k =-0.1667 0.0722 0.0000 ( 31908 PWs)   bands (ev):

   -21.3583 -21.3533 -20.6320 -20.6282 -19.5406 -19.2048 -19.1905 -17.6047
   -17.5986 -17.1739 -17.1736 -17.0212 -17.0052 -16.8048 -16.7957 -15.2615
   -15.2603 -14.3250 -14.3227 -13.5881 -13.5826 -13.2355 -13.2202 -11.5318
   -11.5314 -11.2684 -10.8400 -10.8376 -10.6347 -10.6122  -9.7681  -9.7527
    -9.7177  -9.4003  -9.3774  -9.3094  -9.2733  -9.2651  -9.2304  -9.2297
    -8.7833  -8.7731  -8.4669  -8.4389  -7.9269  -7.9147  -7.6680  -7.6414
    -7.2071  -6.8800  -6.7833  -6.6959  -6.6608  -6.6539  -6.6464  -5.2841
    -5.0919  -4.9738  -4.9274  -4.7872  -4.7299  -4.2341  -4.2270  -0.6386
    -0.5719  -0.3488  -0.2669   0.1214   0.2430   0.6522   0.6788   0.7130
     0.9879   1.4896   1.5179   1.6968

          k =-0.1667-0.1443 0.0000 ( 31784 PWs)   bands (ev):

   -21.0910 -21.0843 -21.0791 -21.0765 -19.5356 -18.2554 -18.2446 -18.2436
   -18.2420 -17.3713 -17.3639 -17.3628 -17.3552 -16.8148 -16.8051 -14.4782
   -14.4713 -14.4676 -14.4646 -13.2397 -13.2270 -12.9355 -12.9328 -12.9315
   -12.9222 -11.2614 -10.3241 -10.3152 -10.3043 -10.2903  -9.9554  -9.9467
    -9.9292  -9.9262  -9.7227  -9.3040  -9.1472  -9.1202  -9.0846  -9.0078
    -8.6726  -8.6264  -8.4102  -8.4003  -8.3881  -8.3795  -7.1002  -7.0810
    -7.0729  -7.0688  -7.0591  -6.7644  -6.7394  -5.9143  -5.8006  -5.7536
    -5.7121  -5.2352  -4.9903  -4.9698  -4.9440  -4.3429  -4.2411  -0.3523
    -0.2007  -0.1617  -0.1432   0.4465   0.6608   0.7737   1.0249   1.0633
     1.0681   1.1708   1.2758   1.3863

          k =-0.0833 0.0722 0.0000 ( 31951 PWs)   bands (ev):

   -21.7214 -20.9919 -20.7505 -20.0323 -19.5840 -19.5054 -18.8498 -18.6188
   -18.1613 -17.5003 -16.9161 -16.8145 -16.8008 -16.6228 -16.2579 -15.1646
   -14.6749 -14.5756 -14.0595 -13.9394 -13.2373 -13.2353 -12.2449 -12.2308
   -12.0140 -11.7991 -11.5351 -11.3048 -10.7496 -10.3646  -9.7924  -9.7494
    -9.7198  -9.6974  -9.3832  -9.3017  -9.1770  -8.9984  -8.8214  -8.7907
    -8.6702  -8.6612  -8.5312  -8.4952  -8.1785  -7.8382  -7.5412  -7.3645
    -7.3538  -6.9814  -6.7710  -6.7478  -6.4530  -6.4137  -6.1700  -6.0669
    -5.7898  -5.2162  -4.8396  -4.4647  -4.3895  -3.9582  -3.7461  -1.0957
    -0.7820  -0.6293  -0.1558   0.2727   0.3619   0.6108   0.8254   0.9930
     1.4590   1.6197   1.6792   1.9393

     the Fermi energy is    -2.3868 ev

!    total energy              =    -351.25181365 Ry
     Harris-Foulkes estimate   =    -351.25181401 Ry
     estimated scf accuracy    <       0.00000059 Ry

     The total energy is the sum of the following terms:

     one-electron contribution =   -4808.46434175 Ry
     hartree contribution      =    2424.15308631 Ry
     xc contribution           =    -112.32779676 Ry
     ewald contribution        =    2145.38999486 Ry
     smearing contrib. (-TS)   =      -0.00275630 Ry

     convergence has been achieved in   5 iterations

     Forces acting on atoms (cartesian axes, Ry/au):

     atom    1 type  1   force =     0.00166816   -0.00014526    0.00044390
     atom    2 type  1   force =     0.00079759    0.00179594    0.00060946
     atom    3 type  1   force =    -0.00274407   -0.00237954   -0.00272138
     atom    4 type  1   force =     0.00159181    0.00136456   -0.01033243
     atom    5 type  1   force =     0.00168157   -0.00132338   -0.01032567
     atom    6 type  1   force =    -0.00285894    0.00219189   -0.00261166
     atom    7 type  1   force =     0.00058182   -0.00176838    0.00081602
     atom    8 type  1   force =     0.00180174    0.00011867    0.00049838
     atom    9 type  1   force =    -0.00180174   -0.00011867    0.00049838
     atom   10 type  1   force =     0.00002041   -0.00296206   -0.00320524
     atom   11 type  1   force =    -0.00003056    0.00200591   -0.01028652
     atom   12 type  1   force =    -0.00168157    0.00132338   -0.01032567
     atom   13 type  1   force =    -0.00159181   -0.00136456   -0.01033243
     atom   14 type  1   force =     0.00003056   -0.00200591   -0.01028652
     atom   15 type  1   force =    -0.00002041    0.00296206   -0.00320524
     atom   16 type  1   force =    -0.00166816    0.00014526    0.00044390
     atom   17 type  1   force =    -0.00013091    0.00023646    0.00139243
     atom   18 type  1   force =    -0.00058182    0.00176838    0.00081602
     atom   19 type  1   force =     0.00285894   -0.00219189   -0.00261166
     atom   20 type  1   force =    -0.00015896   -0.00015690   -0.00019812
     atom   21 type  1   force =     0.00015896    0.00015690   -0.00019812
     atom   22 type  1   force =     0.00274407    0.00237954   -0.00272138
     atom   23 type  1   force =    -0.00079759   -0.00179594    0.00060946
     atom   24 type  1   force =     0.00013091   -0.00023646    0.00139243
     atom   25 type  1   force =    -0.00146207    0.00512542    0.01110057
     atom   26 type  1   force =     0.00387691    0.00300866    0.01110859
     atom   27 type  1   force =     0.00490730   -0.00090869    0.01114068
     atom   28 type  1   force =     0.00146207   -0.00512542    0.01110057
     atom   29 type  1   force =    -0.00387691   -0.00300866    0.01110859
     atom   30 type  1   force =    -0.00490730    0.00090869    0.01114068
     atom   31 type  2   force =     0.00044623   -0.00117343    0.00083221
     atom   32 type  2   force =    -0.00095187   -0.00120212    0.00083296
     atom   33 type  2   force =    -0.00163237    0.00055038    0.00090581
     atom   34 type  2   force =    -0.00044623    0.00117343    0.00083221
     atom   35 type  2   force =     0.00095187    0.00120212    0.00083296
     atom   36 type  2   force =     0.00163237   -0.00055038    0.00090581

     Total force =     0.041614     Total SCF correction =     0.002069

     number of scf cycles    =   3
     number of bfgs steps    =   2

     energy   old            =    -351.2497386482 Ry
     energy   new            =    -351.2518136479 Ry

     CASE: energy  _new < energy  _old

     new trust radius        =       0.0230514147 bohr
     new conv_thr            =       0.0000010000 Ry


ATOMIC_POSITIONS (angstrom)
C        1.229968831   0.000950046   0.001768743
C        0.001704162   0.710167853   0.001308020
C        0.003024871   2.132799134  -0.005702330
C        1.230322395   2.840695343  -0.025318265
C        1.230403581   4.260866625  -0.025322818
C        0.003217499   4.968774308  -0.005558291
C        0.001753090   6.391150246   0.002030698
C        1.230067271   7.100472360   0.001287101
C        3.689932729   0.000935951   0.001287101
C        2.459893887   0.713959837  -0.006170075
C        2.459909976   2.131047499  -0.025710030
C        3.689596419   2.840541686  -0.025322818
C        3.689677605   4.260712968  -0.025318265
C        2.460090024   4.970360812  -0.025710030
C        2.460106113   6.387448474  -0.006170075
C        3.690031169   7.100458265   0.001768743
C        6.150001812   0.000061527   0.001774760
C        4.918246910   0.710258065   0.002030698
C        4.916782501   2.132634003  -0.005558291
C        6.150025513   2.841161049   0.001434978
C        6.149974487   4.260247262   0.001434978
C        4.916975129   4.968609177  -0.005702330
C        4.918295838   6.391240458   0.001308020
C        6.149998188   7.101346784   0.001774760
C        2.821468245   2.203062393   3.027405448
C        1.473062223   2.564203721   3.027397159
C        1.111804036   3.911367866   3.027436691
C        2.098531755   4.898345918   3.027405448
C        3.446937777   4.537204590   3.027397159
C        3.808195964   3.190040445   3.027436691
H        3.101933232   1.155951556   3.000584998
H        0.706989611   1.797142837   3.000590095
H        0.065124602   4.192782546   3.000763118
H        1.818066768   5.945456755   3.000584998
H        4.213010389   5.304265474   3.000590095
H        4.854875398   2.908625765   3.000763118



     Writing output data file batch_graph+benzene.save/
     NEW-OLD atomic charge density approx. for the potential

     negative rho (up, down):  2.090E-04 0.000E+00

     total cpu time spent up to now is      687.3 secs

     Self-consistent Calculation

     iteration #  1     ecut=    32.00 Ry     beta= 0.50
     Davidson diagonalization with overlap
     ethr =  1.00E-06,  avg # of iterations =  4.0

     negative rho (up, down):  2.089E-04 0.000E+00

     total cpu time spent up to now is      739.3 secs

     total energy              =    -351.25435477 Ry
     Harris-Foulkes estimate   =    -351.25485170 Ry
     estimated scf accuracy    <       0.00112118 Ry

     iteration #  2     ecut=    32.00 Ry     beta= 0.50
     Davidson diagonalization with overlap
     ethr =  8.90E-07,  avg # of iterations =  2.0

     negative rho (up, down):  2.104E-04 0.000E+00

     total cpu time spent up to now is      769.5 secs

     total energy              =    -351.25454174 Ry
     Harris-Foulkes estimate   =    -351.25458025 Ry
     estimated scf accuracy    <       0.00014498 Ry

     iteration #  3     ecut=    32.00 Ry     beta= 0.50
     Davidson diagonalization with overlap
     ethr =  1.15E-07,  avg # of iterations =  2.0

     negative rho (up, down):  2.092E-04 0.000E+00

     total cpu time spent up to now is      799.6 secs

     total energy              =    -351.25456334 Ry
     Harris-Foulkes estimate   =    -351.25457212 Ry
     estimated scf accuracy    <       0.00003949 Ry

     iteration #  4     ecut=    32.00 Ry     beta= 0.50
     Davidson diagonalization with overlap
     ethr =  3.13E-08,  avg # of iterations =  2.2

     negative rho (up, down):  2.110E-04 0.000E+00

     total cpu time spent up to now is      828.4 secs

     total energy              =    -351.25457016 Ry
     Harris-Foulkes estimate   =    -351.25457260 Ry
     estimated scf accuracy    <       0.00001143 Ry

     iteration #  5     ecut=    32.00 Ry     beta= 0.50
     Davidson diagonalization with overlap
     ethr =  9.07E-09,  avg # of iterations =  2.2

     negative rho (up, down):  2.103E-04 0.000E+00

     total cpu time spent up to now is      856.5 secs

     total energy              =    -351.25457240 Ry
     Harris-Foulkes estimate   =    -351.25457256 Ry
     estimated scf accuracy    <       0.00000116 Ry

     iteration #  6     ecut=    32.00 Ry     beta= 0.50
     Davidson diagonalization with overlap
     ethr =  9.17E-10,  avg # of iterations =  2.2

     negative rho (up, down):  2.091E-04 0.000E+00

     total cpu time spent up to now is      885.7 secs

     End of self-consistent calculation

          k = 0.0000 0.0000 0.0000 ( 31971 PWs)   bands (ev):

   -21.9409 -20.4870 -20.4834 -20.0129 -20.0041 -19.5385 -18.6039 -18.6018
   -18.5873 -18.5865 -16.8391 -16.8137 -16.7301 -15.6633 -15.1025 -15.0975
   -15.0753 -15.0728 -13.2662 -13.2424 -13.1187 -13.1143 -13.1029 -13.0964
   -12.9766 -12.9686 -11.3536 -10.3120 -10.2864 -10.0312  -9.9448  -9.9428
    -9.7064  -9.3035  -9.1162  -9.1099  -9.1096  -9.1058  -8.9730  -8.9356
    -8.9186  -8.7573  -8.6603  -8.4035  -8.2421  -7.8405  -7.7400  -7.6191
    -7.6166  -7.0561  -6.7919  -6.7678  -6.2535  -6.2161  -6.1560  -6.0972
    -5.6488  -5.6376  -4.9007  -4.4613  -4.3584  -2.4324  -2.4271  -2.3591
    -2.3540  -0.7526  -0.0379   0.4329   0.4682   0.6857   1.3056   1.3363
     1.3833   1.4810   1.5865   1.9916

          k = 0.0000 0.0722 0.0000 ( 31929 PWs)   bands (ev):

   -21.8491 -21.1184 -19.9233 -19.9160 -19.6863 -19.5346 -19.2132 -19.1917
   -17.8367 -17.8230 -17.6159 -16.8142 -16.8096 -15.9632 -15.9537 -14.6731
   -14.5628 -14.5545 -13.7197 -13.7056 -13.2559 -13.2331 -12.4548 -12.4464
   -12.3953 -12.3776 -11.5777 -11.3456 -10.7694 -10.7470 -10.1534 -10.1509
    -9.9299  -9.7078  -9.3026  -9.1247  -8.8814  -8.6702  -8.6590  -8.6254
    -8.6062  -8.4505  -8.4396  -8.3684  -8.1825  -7.7927  -7.6453  -7.4418
    -7.1106  -6.9732  -6.9237  -6.7835  -6.7033  -6.6752  -6.0027  -5.8407
    -5.4439  -5.4137  -5.2967  -4.4593  -4.4283  -3.3902  -3.3785  -1.4271
    -1.4193  -0.1455   0.1024   0.2599   0.3314   0.6618   0.7062   0.8162
     1.3183   1.8002   1.8545   2.2174

          k = 0.0000-0.1443 0.0000 ( 31940 PWs)   bands (ev):

   -21.5786 -21.5701 -19.6761 -19.6617 -19.6495 -19.6452 -19.5063 -18.7122
   -18.7067 -16.9572 -16.9464 -16.9339 -16.9290 -16.7962 -16.7852 -14.1859
   -14.1820 -14.1756 -14.1675 -13.2679 -13.2339 -13.1781 -13.1689 -11.5875
   -11.5752 -11.5642 -11.5590 -11.3696 -11.3569 -11.3498 -11.3442 -11.3166
    -9.7100  -9.6325  -9.6186  -9.3022  -8.6947  -8.6561  -8.6173  -8.6074
    -8.3194  -8.3087  -8.3029  -8.2908  -7.6363  -7.3689  -7.3612  -7.3321
    -7.0045  -6.9729  -6.9410  -6.7610  -6.7232  -6.3665  -6.3411  -6.3275
    -6.2568  -4.7589  -4.7503  -4.4253  -4.4138  -4.1589  -4.1260  -0.5484
    -0.5398  -0.4794  -0.4649   0.3393   0.4398   0.5821   0.8865   1.1838
     1.2525   1.3987   1.5113   2.0831

          k = 0.0833 0.0000 0.0000 ( 31951 PWs)   bands (ev):

   -21.8185 -20.8466 -20.3675 -20.3636 -19.5572 -19.4125 -19.3955 -18.9429
   -17.5888 -17.5875 -16.8234 -16.8218 -16.6408 -16.3006 -15.8159 -15.5622
   -14.9112 -14.6536 -14.6524 -14.1604 -13.2424 -13.2366 -12.4356 -12.1942
   -11.7405 -11.5192 -11.5183 -11.3175 -10.2077  -9.9704  -9.9702  -9.8939
    -9.7127  -9.4804  -9.3037  -9.1858  -9.1852  -9.0093  -9.0090  -8.8789
    -8.7759  -8.7344  -8.6118  -8.2447  -8.1241  -8.0737  -8.0731  -7.6893
    -7.3076  -7.1013  -6.8925  -6.7557  -6.7217  -6.4747  -6.1227  -5.8982
    -5.3392  -5.2909  -4.7830  -4.4583  -4.3239  -3.6543  -3.3928  -1.4531
    -1.1215  -0.7853  -0.1771  -0.0911   0.1589   0.5964   0.6546   0.8605
     1.5257   1.7477   2.1244   2.2054

          k = 0.0833 0.0722 0.0000 ( 31951 PWs)   bands (ev):

   -21.7269 -20.9975 -20.7560 -20.0376 -19.5874 -19.5128 -18.8556 -18.6246
   -18.1671 -17.5059 -16.9205 -16.8160 -16.8053 -16.6299 -16.2641 -15.1702
   -14.6806 -14.5823 -14.0657 -13.9452 -13.2402 -13.2369 -12.2508 -12.2374
   -12.0195 -11.8054 -11.5421 -11.3103 -10.7556 -10.3705  -9.7948  -9.7552
    -9.7231  -9.7041  -9.3882  -9.3030  -9.1829  -9.0001  -8.8243  -8.7982
    -8.6756  -8.6609  -8.5307  -8.5018  -8.1855  -7.8340  -7.5481  -7.3701
    -7.3617  -7.0093  -6.7845  -6.7386  -6.4597  -6.4002  -6.1719  -6.0738
    -5.7927  -5.2200  -4.8392  -4.4695  -4.4025  -3.9730  -3.7574  -1.1008
    -0.7840  -0.6327  -0.1611   0.2703   0.3709   0.6085   0.8189   0.9887
     1.4484   1.5967   1.6621   1.9302

          k = 0.0833-0.1443 0.0000 ( 31876 PWs)   bands (ev):

   -21.4568 -21.4483 -20.4888 -20.4818 -19.5425 -18.6035 -18.6028 -18.5891
   -18.5840 -17.6923 -17.6858 -16.8263 -16.8103 -16.3376 -16.3291 -15.2833
   -15.2790 -13.2519 -13.2477 -13.1226 -13.1103 -13.0984 -13.0974 -13.0335
   -13.0279 -11.4202 -11.4190 -11.3007 -10.7302 -10.7274  -9.9513  -9.9464
    -9.7151  -9.5024  -9.4754  -9.3039  -9.1189  -9.1126  -9.1122  -9.1018
    -8.7692  -8.7006  -8.3293  -8.2847  -7.6205  -7.6066  -7.3013  -7.2807
    -7.1377  -6.7772  -6.7632  -6.6359  -6.6323  -6.2428  -6.1901  -6.1629
    -6.1320  -5.2281  -5.1690  -4.5975  -4.4469  -4.0893  -4.0051  -0.9766
    -0.9543   0.2510   0.3332   0.4805   0.5585   0.6146   1.0736   1.3145
     1.3216   1.3673   1.4099   1.4160

          k =-0.1667 0.0000 0.0000 ( 31854 PWs)   bands (ev):

   -21.4532 -21.4520 -20.0133 -20.0103 -20.0097 -20.0001 -19.5288 -17.6915
   -17.6868 -16.8610 -16.8321 -16.7414 -16.7233 -16.3413 -16.3297 -15.6687
   -15.6671 -15.2768 -15.2757 -13.2482 -13.2253 -13.0376 -13.0322 -11.4161
   -11.4140 -11.2769 -10.7430 -10.7213 -10.3099 -10.3034 -10.2838 -10.2783
    -9.7226  -9.4968  -9.4861  -9.3038  -8.9700  -8.9680  -8.9517  -8.9354
    -8.9347  -8.9157  -8.7543  -8.7126  -7.9472  -7.7422  -7.7411  -7.7406
    -7.3118  -7.2841  -6.9463  -6.7506  -6.7220  -6.6279  -6.6242  -5.3044
    -5.1228  -4.8906  -4.8786  -4.5753  -4.2614  -4.1748  -3.9680  -0.9951
    -0.9268  -0.7868  -0.7157   0.2690   0.4237   0.5747   0.6125   0.7363
     0.8769   1.3576   1.4026   2.2046

          k =-0.1667 0.0722 0.0000 ( 31908 PWs)   bands (ev):

   -21.3619 -21.3608 -20.6356 -20.6356 -19.5450 -19.2085 -19.1991 -17.6097
   -17.6048 -17.1809 -17.1771 -17.0246 -17.0114 -16.8109 -16.7992 -15.2672
   -15.2657 -14.3310 -14.3296 -13.5930 -13.5884 -13.2386 -13.2228 -11.5385
   -11.5382 -11.2742 -10.8462 -10.8446 -10.6398 -10.6181  -9.7735  -9.7571
    -9.7203  -9.4003  -9.3816  -9.3104  -9.2784  -9.2725  -9.2376  -9.2363
    -8.7850  -8.7755  -8.4669  -8.4417  -7.9326  -7.9215  -7.6715  -7.6494
    -7.2137  -6.8817  -6.7893  -6.6994  -6.6680  -6.6614  -6.6523  -5.2749
    -5.0943  -4.9723  -4.9296  -4.7933  -4.7324  -4.2586  -4.2489  -0.6356
    -0.5725  -0.3478  -0.2763   0.1238   0.2387   0.6538   0.6705   0.6974
     0.9905   1.4845   1.5147   1.7026

          k =-0.1667-0.1443 0.0000 ( 31784 PWs)   bands (ev):

   -21.0931 -21.0916 -21.0842 -21.0841 -19.5405 -18.2589 -18.2520 -18.2495
   -18.2484 -17.3751 -17.3693 -17.3684 -17.3625 -16.8197 -16.8075 -14.4841
   -14.4776 -14.4726 -14.4697 -13.2422 -13.2288 -12.9422 -12.9379 -12.9371
   -12.9323 -11.2674 -10.3275 -10.3220 -10.3083 -10.2980  -9.9608  -9.9549
    -9.9352  -9.9325  -9.7244  -9.3053  -9.1422  -9.1251  -9.0906  -9.0106
    -8.6743  -8.6275  -8.4135  -8.4053  -8.3947  -8.3889  -7.1158  -7.0883
    -7.0796  -7.0729  -7.0682  -6.7634  -6.7394  -5.9081  -5.8012  -5.7573
    -5.7237  -5.2253  -4.9946  -4.9743  -4.9511  -4.3604  -4.2658  -0.3403
    -0.2018  -0.1692  -0.1479   0.4566   0.6477   0.7752   1.0226   1.0550
     1.0568   1.1729   1.2557   1.3899

          k =-0.0833 0.0722 0.0000 ( 31951 PWs)   bands (ev):

   -21.7269 -20.9975 -20.7560 -20.0376 -19.5874 -19.5128 -18.8556 -18.6246
   -18.1671 -17.5058 -16.9195 -16.8177 -16.8048 -16.6296 -16.2644 -15.1704
   -14.6802 -14.5821 -14.0661 -13.9449 -13.2401 -13.2376 -12.2507 -12.2368
   -12.0194 -11.8056 -11.5419 -11.3107 -10.7559 -10.3709  -9.7950  -9.7550
    -9.7226  -9.7026  -9.3886  -9.3031  -9.1827  -9.0008  -8.8236  -8.7975
    -8.6729  -8.6647  -8.5331  -8.5023  -8.1849  -7.8390  -7.5485  -7.3701
    -7.3553  -6.9978  -6.7702  -6.7479  -6.4605  -6.4182  -6.1740  -6.0731
    -5.7936  -5.2157  -4.8369  -4.4731  -4.4007  -3.9726  -3.7582  -1.0990
    -0.7846  -0.6325  -0.1566   0.2760   0.3663   0.6046   0.8132   0.9889
     1.4630   1.6205   1.6720   1.9313

     the Fermi energy is    -2.3931 ev

!    total energy              =    -351.25457263 Ry
     Harris-Foulkes estimate   =    -351.25457260 Ry
     estimated scf accuracy    <       0.00000006 Ry

     The total energy is the sum of the following terms:

     one-electron contribution =   -4802.26711355 Ry
     hartree contribution      =    2421.02950803 Ry
     xc contribution           =    -112.32977843 Ry
     ewald contribution        =    2142.31558149 Ry
     smearing contrib. (-TS)   =      -0.00277018 Ry

     convergence has been achieved in   6 iterations

     Forces acting on atoms (cartesian axes, Ry/au):

     atom    1 type  1   force =     0.00121348   -0.00061511    0.00006347
     atom    2 type  1   force =    -0.00057083    0.00126412    0.00029032
     atom    3 type  1   force =    -0.00264462   -0.00198873   -0.00261517
     atom    4 type  1   force =     0.00068274    0.00102203   -0.00879967
     atom    5 type  1   force =     0.00074410   -0.00104215   -0.00877468
     atom    6 type  1   force =    -0.00283666    0.00181378   -0.00250154
     atom    7 type  1   force =    -0.00067711   -0.00101224    0.00023619
     atom    8 type  1   force =     0.00117059    0.00051839    0.00029586
     atom    9 type  1   force =    -0.00117059   -0.00051839    0.00029586
     atom   10 type  1   force =     0.00005348   -0.00285184   -0.00315083
     atom   11 type  1   force =    -0.00002268    0.00063670   -0.00888000
     atom   12 type  1   force =    -0.00074410    0.00104215   -0.00877468
     atom   13 type  1   force =    -0.00068274   -0.00102203   -0.00879967
     atom   14 type  1   force =     0.00002268   -0.00063670   -0.00888000
     atom   15 type  1   force =    -0.00005348    0.00285184   -0.00315083
     atom   16 type  1   force =    -0.00121348    0.00061511    0.00006347
     atom   17 type  1   force =     0.00002334    0.00063657    0.00194367
     atom   18 type  1   force =     0.00067711    0.00101224    0.00023619
     atom   19 type  1   force =     0.00283666   -0.00181378   -0.00250154
     atom   20 type  1   force =    -0.00015224   -0.00021278   -0.00108783
     atom   21 type  1   force =     0.00015224    0.00021278   -0.00108783
     atom   22 type  1   force =     0.00264462    0.00198873   -0.00261517
     atom   23 type  1   force =     0.00057083   -0.00126412    0.00029032
     atom   24 type  1   force =    -0.00002334   -0.00063657    0.00194367
     atom   25 type  1   force =    -0.00170516    0.00562537    0.00946066
     atom   26 type  1   force =     0.00425340    0.00275403    0.00946468
     atom   27 type  1   force =     0.00503274   -0.00048946    0.00949675
     atom   28 type  1   force =     0.00170516   -0.00562537    0.00946066
     atom   29 type  1   force =    -0.00425340   -0.00275403    0.00946468
     atom   30 type  1   force =    -0.00503274    0.00048946    0.00949675
     atom   31 type  2   force =     0.00085335   -0.00267667    0.00149430
     atom   32 type  2   force =    -0.00189252   -0.00210371    0.00149940
     atom   33 type  2   force =    -0.00287166    0.00080900    0.00156442
     atom   34 type  2   force =    -0.00085335    0.00267667    0.00149430
     atom   35 type  2   force =     0.00189252    0.00210371    0.00149940
     atom   36 type  2   force =     0.00287166   -0.00080900    0.00156442

     Total force =     0.037139     Total SCF correction =     0.000246

     number of scf cycles    =   4
     number of bfgs steps    =   3

     energy   old            =    -351.2518136479 Ry
     energy   new            =    -351.2545726326 Ry

     CASE: energy  _new < energy  _old

     new trust radius        =       0.0345771221 bohr
     new conv_thr            =       0.0000009497 Ry


ATOMIC_POSITIONS (angstrom)
C        1.230482532   0.000857140   0.002515659
C        0.001581089   0.710827370   0.001947021
C        0.002994786   2.133025203  -0.009842131
C        1.230263302   2.840878710  -0.042233710
C        1.230399443   4.260725999  -0.042219360
C        0.003180423   4.968532910  -0.009562699
C        0.001565485   6.390648983   0.002854635
C        1.230531385   7.100498406   0.001991912
C        3.689468615   0.000909905   0.001991912
C        2.459877589   0.714029945  -0.010837955
C        2.459858471   2.131073360  -0.042798871
C        3.689600557   2.840682312  -0.042219360
C        3.689736698   4.260529601  -0.042233710
C        2.460141529   4.970334951  -0.042798871
C        2.460122411   6.387378366  -0.010837955
C        3.689517468   7.100551171   0.002515659
C        6.150076515   0.000601015   0.003930647
C        4.918434515   0.710759328   0.002854635
C        4.916819577   2.132875401  -0.009562699
C        6.149996634   2.841012896   0.001174343
C        6.150003366   4.260395415   0.001174343
C        4.917005214   4.968383108  -0.009842131
C        4.918418911   6.390580941   0.001947021
C        6.149923485   7.100807296   0.003930647
C        2.821125301   2.204609256   3.045634144
C        1.473983233   2.564728399   3.045625323
C        1.112748427   3.911171267   3.045703102
C        2.098874699   4.896799056   3.045634144
C        3.446016767   4.536679912   3.045625323
C        3.807251573   3.190237044   3.045703102
H        3.101656532   1.157746383   3.001934062
H        0.708281332   1.798009504   3.001945518
H        0.066615944   4.192596299   3.002238360
H        1.818343468   5.943661928   3.001934062
H        4.211718668   5.303398807   3.001945518
H        4.853384056   2.908812012   3.002238360



     Writing output data file batch_graph+benzene.save/
     NEW-OLD atomic charge density approx. for the potential

     negative rho (up, down):  2.091E-04 0.000E+00

     total cpu time spent up to now is      900.4 secs

     Self-consistent Calculation

     iteration #  1     ecut=    32.00 Ry     beta= 0.50
     Davidson diagonalization with overlap
     ethr =  1.00E-06,  avg # of iterations =  4.2

     negative rho (up, down):  2.082E-04 0.000E+00

     total cpu time spent up to now is      957.9 secs

     total energy              =    -351.25753541 Ry
     Harris-Foulkes estimate   =    -351.25863725 Ry
     estimated scf accuracy    <       0.00250517 Ry

     iteration #  2     ecut=    32.00 Ry     beta= 0.50
     Davidson diagonalization with overlap
     ethr =  1.99E-06,  avg # of iterations =  4.2

     negative rho (up, down):  2.100E-04 0.000E+00

     total cpu time spent up to now is      989.5 secs

     total energy              =    -351.25795193 Ry
     Harris-Foulkes estimate   =    -351.25802301 Ry
     estimated scf accuracy    <       0.00030232 Ry

     iteration #  3     ecut=    32.00 Ry     beta= 0.50
     Davidson diagonalization with overlap
     ethr =  2.40E-07,  avg # of iterations =  3.4

     negative rho (up, down):  2.102E-04 0.000E+00

     total cpu time spent up to now is     1019.6 secs

     total energy              =    -351.25799648 Ry
     Harris-Foulkes estimate   =    -351.25800593 Ry
     estimated scf accuracy    <       0.00006885 Ry

     iteration #  4     ecut=    32.00 Ry     beta= 0.50
     Davidson diagonalization with overlap
     ethr =  5.46E-08,  avg # of iterations =  2.0

     negative rho (up, down):  2.138E-04 0.000E+00

     total cpu time spent up to now is     1048.8 secs

     total energy              =    -351.25800656 Ry
     Harris-Foulkes estimate   =    -351.25800981 Ry
     estimated scf accuracy    <       0.00001669 Ry

     iteration #  5     ecut=    32.00 Ry     beta= 0.50
     Davidson diagonalization with overlap
     ethr =  1.32E-08,  avg # of iterations =  2.1

     negative rho (up, down):  2.105E-04 0.000E+00

     total cpu time spent up to now is     1077.1 secs

     total energy              =    -351.25800995 Ry
     Harris-Foulkes estimate   =    -351.25801050 Ry
     estimated scf accuracy    <       0.00000273 Ry

     iteration #  6     ecut=    32.00 Ry     beta= 0.50
     Davidson diagonalization with overlap
     ethr =  2.17E-09,  avg # of iterations =  2.1

     negative rho (up, down):  2.078E-04 0.000E+00

     total cpu time spent up to now is     1105.2 secs

     End of self-consistent calculation

          k = 0.0000 0.0000 0.0000 ( 31971 PWs)   bands (ev):

   -21.9484 -20.4934 -20.4920 -20.0193 -20.0122 -19.5529 -18.6111 -18.6077
   -18.5972 -18.5951 -16.8421 -16.8179 -16.7414 -15.6719 -15.1079 -15.1036
   -15.0857 -15.0842 -13.2645 -13.2430 -13.1259 -13.1214 -13.1118 -13.1078
   -12.9837 -12.9773 -11.3577 -10.3175 -10.2967 -10.0362  -9.9546  -9.9495
    -9.6954  -9.3104  -9.1229  -9.1195  -9.1188  -9.1158  -8.9807  -8.9436
    -8.9299  -8.7590  -8.6619  -8.3993  -8.2450  -7.8432  -7.7448  -7.6276
    -7.6215  -7.0849  -6.7927  -6.7607  -6.2511  -6.2188  -6.1634  -6.1134
    -5.6555  -5.6477  -4.8974  -4.4772  -4.3848  -2.4348  -2.4310  -2.3731
    -2.3691  -0.7548  -0.0354   0.4449   0.4687   0.6799   1.2978   1.3267
     1.3689   1.4581   1.5861   1.9957

          k = 0.0000 0.0722 0.0000 ( 31929 PWs)   bands (ev):

   -21.8566 -21.1260 -19.9297 -19.9238 -19.6932 -19.5490 -19.2197 -19.2020
   -17.8433 -17.8319 -17.6236 -16.8183 -16.8163 -15.9709 -15.9629 -14.6816
   -14.5701 -14.5636 -13.7262 -13.7149 -13.2559 -13.2345 -12.4622 -12.4552
   -12.4019 -12.3875 -11.5868 -11.3498 -10.7755 -10.7573 -10.1619 -10.1597
    -9.9328  -9.6966  -9.3097  -9.1274  -8.8893  -8.6694  -8.6602  -8.6328
    -8.6173  -8.4582  -8.4499  -8.3783  -8.1910  -7.7886  -7.6475  -7.4478
    -7.1248  -6.9810  -6.9261  -6.7854  -6.7030  -6.6945  -6.0127  -5.8490
    -5.4399  -5.4131  -5.3054  -4.4749  -4.4503  -3.4012  -3.3914  -1.4337
    -1.4269  -0.1415   0.1050   0.2687   0.3314   0.6419   0.6907   0.8103
     1.3220   1.7972   1.8508   2.2168

          k = 0.0000-0.1443 0.0000 ( 31940 PWs)   bands (ev):

   -21.5850 -21.5788 -19.6815 -19.6658 -19.6583 -19.6537 -19.5237 -18.7208
   -18.7142 -16.9607 -16.9503 -16.9416 -16.9392 -16.8033 -16.7958 -14.1907
   -14.1907 -14.1834 -14.1782 -13.2671 -13.2350 -13.1858 -13.1796 -11.5926
   -11.5828 -11.5747 -11.5687 -11.3753 -11.3639 -11.3585 -11.3517 -11.3256
    -9.6991  -9.6320  -9.6245  -9.3092  -8.6936  -8.6567  -8.6225  -8.6189
    -8.3264  -8.3167  -8.3136  -8.3022  -7.6309  -7.3692  -7.3663  -7.3390
    -7.0146  -6.9851  -6.9637  -6.7660  -6.7188  -6.3664  -6.3474  -6.3370
    -6.2696  -4.7530  -4.7417  -4.4323  -4.4237  -4.1875  -4.1579  -0.5481
    -0.5406  -0.4857  -0.4746   0.3410   0.4422   0.5770   0.8869   1.1775
     1.2528   1.3902   1.4923   2.0787

          k = 0.0833 0.0000 0.0000 ( 31951 PWs)   bands (ev):

   -21.8261 -20.8541 -20.3739 -20.3721 -19.5681 -19.4211 -19.4057 -18.9509
   -17.5961 -17.5956 -16.8276 -16.8262 -16.6506 -16.3092 -15.8240 -15.5709
   -14.9201 -14.6620 -14.6597 -14.1682 -13.2421 -13.2380 -12.4439 -12.2019
   -11.7485 -11.5280 -11.5264 -11.3219 -10.2170  -9.9807  -9.9801  -9.8949
    -9.7016  -9.4884  -9.3109  -9.1948  -9.1938  -9.0187  -9.0176  -8.8813
    -8.7837  -8.7360  -8.6103  -8.2440  -8.1276  -8.0822  -8.0807  -7.6994
    -7.3134  -7.1066  -6.9102  -6.7560  -6.7216  -6.4855  -6.1308  -5.9082
    -5.3367  -5.2923  -4.7811  -4.4754  -4.3491  -3.6685  -3.4046  -1.4606
    -1.1275  -0.7886  -0.1720  -0.0938   0.1611   0.5862   0.6421   0.8549
     1.5284   1.7484   2.1159   2.2012

[...]

     CASE: energy  _new < energy  _old

     new trust radius        =       0.0009498105 bohr
     new conv_thr            =       0.0000000100 Ry


ATOMIC_POSITIONS (angstrom)
C        1.230239930   0.000348164  -0.178710865
C        0.000329803   0.710483663  -0.176211650
C        0.000734863   2.131158899  -0.192767897
C        1.230406797   2.840699412  -0.214812238
C        1.230409049   4.260721899  -0.214767442
C        0.000761810   4.970261654  -0.192676088
C        0.000309895   6.390931772  -0.176126399
C        1.230240284   7.101058134  -0.178727137
C        3.689759716   0.000350177  -0.178727137
C        2.459993278   0.711034154  -0.191511329
C        2.459985792   2.130936724  -0.213903894
C        3.689590951   2.840686412  -0.214767442
C        3.689593203   4.260708899  -0.214812238
C        2.460014208   4.970471587  -0.213903894
C        2.460006722   6.390374157  -0.191511329
C        3.689760070   7.101060147  -0.178710865
C        6.149989273   0.000322121  -0.167555163
C        4.919690105   0.710476539  -0.176126399
C        4.919238190   2.131146657  -0.192676088
C        6.149998726   2.840560039  -0.190553032
C        6.150001274   4.260848272  -0.190553032
C        4.919265137   4.970249412  -0.192767897
C        4.919670197   6.390924648  -0.176211650
C        6.150010727   7.101086190  -0.167555163
C        2.821075615   2.203670855   3.386327669
C        1.473074333   2.564239634   3.386195648
C        1.111844807   3.911668162   3.386444728
C        2.098924385   4.897737456   3.386327669
C        3.446925667   4.537168677   3.386195648
C        3.808155193   3.189740149   3.386444728
H        3.102571441   1.153942409   3.376490257
H        0.705433065   1.794832196   3.375971888
H        0.062440624   4.194263855   3.376892942
H        1.817428559   5.947465902   3.376490257
H        4.214566935   5.306576115   3.375971888
H        4.857559376   2.907144456   3.376892942



     Writing output data file batch_graph+benzene.save/
     NEW-OLD atomic charge density approx. for the potential

     negative rho (up, down):  2.021E-04 0.000E+00

     total cpu time spent up to now is     8096.5 secs

     Self-consistent Calculation

     iteration #  1     ecut=    32.00 Ry     beta= 0.50
     Davidson diagonalization with overlap
     ethr =  1.00E-06,  avg # of iterations =  2.0

     Threshold (ethr) on eigenvalues was too large:
     Diagonalizing with lowered threshold

     Davidson diagonalization with overlap
     ethr =  6.06E-10,  avg # of iterations =  3.1

     negative rho (up, down):  2.021E-04 0.000E+00

     total cpu time spent up to now is     8156.3 secs

     total energy              =    -351.28179195 Ry
     Harris-Foulkes estimate   =    -351.28179242 Ry
     estimated scf accuracy    <       0.00000110 Ry

     iteration #  2     ecut=    32.00 Ry     beta= 0.50
     Davidson diagonalization with overlap
     ethr =  8.73E-10,  avg # of iterations =  2.0

     negative rho (up, down):  2.021E-04 0.000E+00

     total cpu time spent up to now is     8186.8 secs

     total energy              =    -351.28179209 Ry
     Harris-Foulkes estimate   =    -351.28179215 Ry
     estimated scf accuracy    <       0.00000019 Ry

     iteration #  3     ecut=    32.00 Ry     beta= 0.50
     Davidson diagonalization with overlap
     ethr =  1.50E-10,  avg # of iterations =  2.9

     negative rho (up, down):  2.021E-04 0.000E+00

     total cpu time spent up to now is     8216.2 secs

     total energy              =    -351.28179212 Ry
     Harris-Foulkes estimate   =    -351.28179216 Ry
     estimated scf accuracy    <       0.00000011 Ry

     iteration #  4     ecut=    32.00 Ry     beta= 0.50
     Davidson diagonalization with overlap
     ethr =  8.89E-11,  avg # of iterations =  2.2

     negative rho (up, down):  2.021E-04 0.000E+00

     total cpu time spent up to now is     8243.8 secs

     End of self-consistent calculation

          k = 0.0000 0.0000 0.0000 ( 31971 PWs)   bands (ev):

   -21.8608 -20.4049 -20.4048 -19.9270 -19.9268 -19.5681 -18.5197 -18.5185
   -18.5157 -18.5152 -16.8281 -16.8266 -16.6801 -15.5886 -15.0131 -15.0115
   -15.0114 -15.0098 -13.2644 -13.2413 -13.0372 -13.0366 -13.0360 -13.0355
   -12.8969 -12.8964 -11.3348 -10.2241 -10.2222  -9.9425  -9.8722  -9.8685
    -9.6890  -9.3315  -9.0423  -9.0410  -9.0340  -9.0339  -8.8972  -8.8578
    -8.8564  -8.7187  -8.6540  -8.2320  -8.1976  -7.6903  -7.6460  -7.5446
    -7.5437  -7.2769  -6.8123  -6.7730  -6.0997  -6.0937  -6.0878  -6.0797
    -5.5744  -5.5695  -4.7486  -4.6095  -4.5526  -2.3161  -2.3140  -2.3077
    -2.3053  -0.6206  -0.1396   0.3729   0.4535   0.6691   1.4121   1.4187
     1.4280   1.4593   1.4696   1.8738

          k = 0.0000 0.0722 0.0000 ( 31929 PWs)   bands (ev):

   -21.7690 -21.0383 -19.8376 -19.8375 -19.6021 -19.5652 -19.1278 -19.1266
   -17.7518 -17.7511 -17.5371 -16.8278 -16.8263 -15.8838 -15.8833 -14.5982
   -14.4828 -14.4824 -13.6361 -13.6351 -13.2624 -13.2411 -12.3755 -12.3753
   -12.3118 -12.3106 -11.5049 -11.3299 -10.6836 -10.6819 -10.0788 -10.0786
    -9.8305  -9.6903  -9.3314  -8.9759  -8.8065  -8.7082  -8.6529  -8.5468
    -8.5454  -8.3745  -8.3731  -8.2977  -8.1085  -7.6076  -7.5463  -7.3573
    -7.2106  -6.8985  -6.8117  -6.8021  -6.7329  -6.7234  -5.9341  -5.7654
    -5.2838  -5.2821  -5.2103  -4.6065  -4.6041  -3.3253  -3.3238  -1.3290
    -1.3281  -0.0095   0.0291   0.3834   0.3943   0.5470   0.5961   0.7985
     1.2177   1.6776   1.8298   2.2128

          k = 0.0000-0.1443 0.0000 ( 31940 PWs)   bands (ev):

   -21.5013 -21.4872 -19.5860 -19.5778 -19.5755 -19.5622 -19.5455 -18.6354
   -18.6292 -16.8613 -16.8585 -16.8567 -16.8522 -16.8221 -16.8199 -14.1067
   -14.1048 -14.0969 -14.0967 -13.2612 -13.2414 -13.1060 -13.1059 -11.5010
   -11.4981 -11.4926 -11.4925 -11.3257 -11.2791 -11.2759 -11.2745 -11.2726
    -9.6919  -9.5129  -9.4993  -9.3314  -8.7293  -8.6518  -8.5441  -8.5334
    -8.2375  -8.2373  -8.2325  -8.2299  -7.4554  -7.2597  -7.2531  -7.2419
    -7.1187  -6.9274  -6.9099  -6.8022  -6.7618  -6.2657  -6.2536  -6.2318
    -6.2230  -4.6732  -4.6589  -4.3356  -4.3332  -4.2905  -4.2794  -0.4039
    -0.3978  -0.3927  -0.3873   0.2347   0.3881   0.4721   0.8005   1.1706
     1.2248   1.4876   1.5192   1.9856

          k = 0.0833 0.0000 0.0000 ( 31951 PWs)   bands (ev):

   -21.7384 -20.7664 -20.2851 -20.2849 -19.5679 -19.3341 -19.3331 -18.8661
   -17.5093 -17.5092 -16.8350 -16.8267 -16.5758 -16.2266 -15.7401 -15.4876
   -14.8372 -14.5764 -14.5760 -14.0834 -13.2481 -13.2444 -12.3611 -12.1178
   -11.6646 -11.4441 -11.4437 -11.3034 -10.1352  -9.8997  -9.8977  -9.7917
    -9.6959  -9.4055  -9.3322  -9.1129  -9.1126  -8.9373  -8.9371  -8.7608
    -8.7102  -8.6996  -8.6111  -8.0916  -8.0601  -7.9992  -7.9989  -7.6193
    -7.3322  -6.9807  -6.9407  -6.7811  -6.7637  -6.4279  -6.0476  -5.8296
    -5.1847  -5.1711  -4.6748  -4.6142  -4.4727  -3.6090  -3.3339  -1.3579
    -1.0227  -0.6604  -0.0015   0.0258   0.0578   0.4434   0.4932   0.8426
     1.4129   1.6304   2.0771   2.1836

          k = 0.0833 0.0722 0.0000 ( 31951 PWs)   bands (ev):

   -21.6468 -20.9173 -20.6758 -19.9561 -19.5681 -19.4801 -18.7785 -18.5472
   -18.0890 -17.4268 -16.8415 -16.8289 -16.8165 -16.5607 -16.1904 -15.0932
   -14.6036 -14.5073 -13.9911 -13.8681 -13.2473 -13.2438 -12.1753 -12.1632
   -11.9429 -11.7311 -11.4689 -11.2987 -10.6810 -10.2962  -9.6975  -9.6906
    -9.6758  -9.6418  -9.3324  -9.3129  -9.1083  -8.8460  -8.7437  -8.7261
    -8.6933  -8.5940  -8.5172  -8.4319  -8.1136  -7.7074  -7.4774  -7.3299
    -7.2931  -7.1157  -6.7752  -6.7723  -6.3873  -6.3398  -6.0800  -6.0024
    -5.6883  -5.0760  -4.7078  -4.6104  -4.5197  -3.9718  -3.7246  -0.9967
    -0.6758  -0.5101  -0.0162   0.1800   0.4062   0.4638   0.7563   0.9697
     1.3475   1.4945   1.7322   1.8907

          k = 0.0833-0.1443 0.0000 ( 31876 PWs)   bands (ev):

   -21.3795 -21.3654 -20.4118 -20.3979 -19.5670 -18.5245 -18.5209 -18.5142
   -18.5100 -17.6135 -17.6075 -16.8352 -16.8273 -16.2641 -16.2578 -15.2043
   -15.2035 -13.2476 -13.2430 -13.0407 -13.0356 -13.0352 -13.0326 -12.9624
   -12.9577 -11.3460 -11.3387 -11.2931 -10.6571 -10.6538  -9.8764  -9.8707
    -9.6985  -9.3677  -9.3572  -9.3324  -9.0443  -9.0396  -9.0349  -9.0330
    -8.7364  -8.7249  -8.2154  -8.2135  -7.5458  -7.5390  -7.3087  -7.2251
    -7.2146  -6.7781  -6.7675  -6.5639  -6.5580  -6.0982  -6.0928  -6.0889
    -6.0815  -5.0753  -5.0639  -4.6362  -4.5992  -4.0756  -4.0544  -0.8527
    -0.8508   0.3730   0.3963   0.4054   0.5205   0.5559   0.9920   1.3443
     1.3910   1.4129   1.4162   1.4431

          k =-0.1667 0.0000 0.0000 ( 31854 PWs)   bands (ev):

   -21.3772 -21.3678 -19.9316 -19.9309 -19.9226 -19.9224 -19.5647 -17.6108
   -17.6103 -16.8442 -16.8265 -16.6795 -16.6785 -16.2664 -16.2576 -15.5906
   -15.5901 -15.2066 -15.1972 -13.2496 -13.2308 -12.9618 -12.9618 -11.3405
   -11.3404 -11.2692 -10.6625 -10.6509 -10.2231 -10.2212 -10.2211 -10.2188
    -9.7065  -9.3682  -9.3574  -9.3327  -8.8966  -8.8961  -8.8634  -8.8621
    -8.8579  -8.8559  -8.7991  -8.7017  -7.7232  -7.6542  -7.6525  -7.6401
    -7.2375  -7.2288  -7.2165  -6.7743  -6.7492  -6.5610  -6.5537  -5.0913
    -5.0481  -4.7651  -4.7296  -4.5963  -4.5249  -4.0876  -4.0473  -0.8493
    -0.8490  -0.6302  -0.6141   0.3863   0.4762   0.4803   0.5103   0.5646
     0.7626   1.3432   1.3727   2.1160

          k =-0.1667 0.0722 0.0000 ( 31908 PWs)   bands (ev):

   -21.2860 -21.2766 -20.5599 -20.5506 -19.5660 -19.1334 -19.1238 -17.5287
   -17.5282 -17.1024 -17.0941 -16.9340 -16.9322 -16.8403 -16.8251 -15.1896
   -15.1892 -14.2599 -14.2511 -13.5133 -13.5127 -13.2495 -13.2290 -11.4687
   -11.4623 -11.2650 -10.7725 -10.7722 -10.5592 -10.5477  -9.7081  -9.6924
    -9.6822  -9.3332  -9.2624  -9.2515  -9.2064  -9.2023  -9.1658  -9.1656
    -8.8007  -8.7206  -8.3855  -8.3836  -7.8546  -7.8535  -7.5907  -7.5817
    -7.3155  -6.7954  -6.7670  -6.7177  -6.6948  -6.5943  -6.5911  -5.0477
    -5.0022  -4.8090  -4.7897  -4.7089  -4.6491  -4.5332  -4.4925  -0.4730
    -0.4563  -0.2007  -0.1941   0.2759   0.3299   0.4801   0.5212   0.5574
     0.8797   1.4636   1.4893   1.6055

          k =-0.1667-0.1443 0.0000 ( 31784 PWs)   bands (ev):

   -21.0182 -21.0121 -21.0074 -20.9947 -19.5656 -18.1818 -18.1760 -18.1731
   -18.1665 -17.2988 -17.2928 -17.2850 -17.2801 -16.8420 -16.8267 -14.4061
   -14.4000 -14.3980 -14.3926 -13.2501 -13.2274 -12.8700 -12.8697 -12.8623
   -12.8609 -11.2601 -10.2481 -10.2397 -10.2395 -10.2258  -9.8828  -9.8784
    -9.8668  -9.8630  -9.7088  -9.3335  -8.9657  -8.9493  -8.9323  -8.9302
    -8.7591  -8.6963  -8.3311  -8.3295  -8.3267  -8.3216  -7.3060  -7.0087
    -7.0086  -7.0053  -7.0021  -6.7787  -6.7397  -5.7018  -5.6986  -5.6836
    -5.6753  -4.9633  -4.8936  -4.8928  -4.8753  -4.5891  -4.5495  -0.1057
    -0.0800  -0.0769  -0.0628   0.4401   0.5002   0.6648   1.0206   1.1315
     1.1398   1.1533   1.1883   1.2965

          k =-0.0833 0.0722 0.0000 ( 31951 PWs)   bands (ev):

   -21.6468 -20.9173 -20.6758 -19.9561 -19.5681 -19.4801 -18.7785 -18.5472
   -18.0890 -17.4268 -16.8409 -16.8295 -16.8164 -16.5607 -16.1905 -15.0934
   -14.6035 -14.5073 -13.9912 -13.8680 -13.2473 -13.2438 -12.1754 -12.1630
   -11.9428 -11.7312 -11.4689 -11.2986 -10.6812 -10.2964  -9.6979  -9.6899
    -9.6757  -9.6417  -9.3325  -9.3129  -9.1082  -8.8466  -8.7427  -8.7260
    -8.6936  -8.5940  -8.5181  -8.4318  -8.1135  -7.7085  -7.4776  -7.3295
    -7.2932  -7.1125  -6.7777  -6.7700  -6.3876  -6.3424  -6.0807  -6.0021
    -5.6881  -5.0754  -4.7063  -4.6118  -4.5199  -3.9716  -3.7248  -0.9963
    -0.6762  -0.5099  -0.0155   0.1834   0.4066   0.4604   0.7564   0.9700
     1.3656   1.5210   1.7335   1.8879

     the Fermi energy is    -2.3108 ev

!    total energy              =    -351.28179214 Ry
     Harris-Foulkes estimate   =    -351.28179214 Ry
     estimated scf accuracy    <          6.8E-09 Ry

     The total energy is the sum of the following terms:

     one-electron contribution =   -4559.36167243 Ry
     hartree contribution      =    2299.75911887 Ry
     xc contribution           =    -112.23214592 Ry
     ewald contribution        =    2020.55572756 Ry
     smearing contrib. (-TS)   =      -0.00282022 Ry

     convergence has been achieved in   4 iterations

     Forces acting on atoms (cartesian axes, Ry/au):

     atom    1 type  1   force =     0.00004684    0.00002485    0.00000186
     atom    2 type  1   force =    -0.00001209   -0.00000483   -0.00000705
     atom    3 type  1   force =     0.00001185    0.00000143   -0.00000308
     atom    4 type  1   force =    -0.00005759    0.00001998    0.00001738
     atom    5 type  1   force =    -0.00002488   -0.00001480    0.00000708
     atom    6 type  1   force =    -0.00002995   -0.00001121   -0.00001001
     atom    7 type  1   force =     0.00007499    0.00000065   -0.00000793
     atom    8 type  1   force =     0.00005036   -0.00003758   -0.00000516
     atom    9 type  1   force =    -0.00005036    0.00003758   -0.00000516
     atom   10 type  1   force =     0.00001539    0.00004598    0.00006045
     atom   11 type  1   force =     0.00001828    0.00005800   -0.00004091
     atom   12 type  1   force =     0.00002488    0.00001480    0.00000708
     atom   13 type  1   force =     0.00005759   -0.00001998    0.00001738
     atom   14 type  1   force =    -0.00001828   -0.00005800   -0.00004091
     atom   15 type  1   force =    -0.00001539   -0.00004598    0.00006045
     atom   16 type  1   force =    -0.00004684   -0.00002485    0.00000186
     atom   17 type  1   force =     0.00005577    0.00000900    0.00001962
     atom   18 type  1   force =    -0.00007499   -0.00000065   -0.00000793
     atom   19 type  1   force =     0.00002995    0.00001121   -0.00001001
     atom   20 type  1   force =    -0.00001821   -0.00000420   -0.00002095
     atom   21 type  1   force =     0.00001821    0.00000420   -0.00002095
     atom   22 type  1   force =    -0.00001185   -0.00000143   -0.00000308
     atom   23 type  1   force =     0.00001209    0.00000483   -0.00000705
     atom   24 type  1   force =    -0.00005577   -0.00000900    0.00001962
     atom   25 type  1   force =    -0.00000257   -0.00002004   -0.00000602
     atom   26 type  1   force =    -0.00002056    0.00002463   -0.00001151
     atom   27 type  1   force =     0.00004566    0.00002399   -0.00001160
     atom   28 type  1   force =     0.00000257    0.00002004   -0.00000602
     atom   29 type  1   force =     0.00002056   -0.00002463   -0.00001151
     atom   30 type  1   force =    -0.00004566   -0.00002399   -0.00001160
     atom   31 type  2   force =    -0.00004678   -0.00001760   -0.00001365
     atom   32 type  2   force =    -0.00000649    0.00004681    0.00001209
     atom   33 type  2   force =     0.00004455    0.00005081    0.00001940
     atom   34 type  2   force =     0.00004678    0.00001760   -0.00001365
     atom   35 type  2   force =     0.00000649   -0.00004681    0.00001209
     atom   36 type  2   force =    -0.00004455   -0.00005081    0.00001940

     Total force =     0.000313     Total SCF correction =     0.000117
     SCF correction compared to forces is large: reduce conv_thr to get better values

     bfgs converged in  38 scf cycles and  37 bfgs steps
     (criteria: energy <  1.0E-05 Ry, force <  1.0E-04 Ry/Bohr)

     End of BFGS Geometry Optimization

     Final energy   =    -351.2817921389 Ry
Begin final coordinates

ATOMIC_POSITIONS (angstrom)
C        1.230239930   0.000348164  -0.178710865
C        0.000329803   0.710483663  -0.176211650
C        0.000734863   2.131158899  -0.192767897
C        1.230406797   2.840699412  -0.214812238
C        1.230409049   4.260721899  -0.214767442
C        0.000761810   4.970261654  -0.192676088
C        0.000309895   6.390931772  -0.176126399
C        1.230240284   7.101058134  -0.178727137
C        3.689759716   0.000350177  -0.178727137
C        2.459993278   0.711034154  -0.191511329
C        2.459985792   2.130936724  -0.213903894
C        3.689590951   2.840686412  -0.214767442
C        3.689593203   4.260708899  -0.214812238
C        2.460014208   4.970471587  -0.213903894
C        2.460006722   6.390374157  -0.191511329
C        3.689760070   7.101060147  -0.178710865
C        6.149989273   0.000322121  -0.167555163
C        4.919690105   0.710476539  -0.176126399
C        4.919238190   2.131146657  -0.192676088
C        6.149998726   2.840560039  -0.190553032
C        6.150001274   4.260848272  -0.190553032
C        4.919265137   4.970249412  -0.192767897
C        4.919670197   6.390924648  -0.176211650
C        6.150010727   7.101086190  -0.167555163
C        2.821075615   2.203670855   3.386327669
C        1.473074333   2.564239634   3.386195648
C        1.111844807   3.911668162   3.386444728
C        2.098924385   4.897737456   3.386327669
C        3.446925667   4.537168677   3.386195648
C        3.808155193   3.189740149   3.386444728
H        3.102571441   1.153942409   3.376490257
H        0.705433065   1.794832196   3.375971888
H        0.062440624   4.194263855   3.376892942
H        1.817428559   5.947465902   3.376490257
H        4.214566935   5.306576115   3.375971888
H        4.857559376   2.907144456   3.376892942
End final coordinates



     Writing output data file batch_graph+benzene.save/

     init_run     :     19.87s CPU     20.18s WALL (       1 calls)
     electrons    :   7567.38s CPU   7677.74s WALL (      38 calls)
     update_pot   :    128.53s CPU    131.51s WALL (      37 calls)
     forces       :    393.51s CPU    397.39s WALL (      38 calls)

     Called by init_run:
     wfcinit      :     15.58s CPU     15.74s WALL (       1 calls)
     potinit      :      2.32s CPU      2.43s WALL (       1 calls)
     hinit0       :      1.12s CPU      1.13s WALL (       1 calls)

     Called by electrons:
     c_bands      :   6303.40s CPU   6372.10s WALL (     235 calls)
     sum_band     :    779.96s CPU    796.75s WALL (     235 calls)
     v_of_rho     :    401.31s CPU    420.34s WALL (     265 calls)
     newd         :    145.18s CPU    153.47s WALL (     265 calls)
     mix_rho      :      8.63s CPU      8.85s WALL (     235 calls)

     Called by c_bands:
     init_us_2    :     25.40s CPU     25.49s WALL (    5090 calls)
     cegterg      :   6247.09s CPU   6315.11s WALL (    2350 calls)

     Called by sum_band:
     sum_band:bec :      0.93s CPU      0.93s WALL (    2350 calls)
     addusdens    :    105.49s CPU    113.19s WALL (     235 calls)

     Called by *egterg:
     h_psi        :   3179.04s CPU   3230.51s WALL (    8720 calls)
     s_psi        :    942.28s CPU    944.80s WALL (    8720 calls)
     g_psi        :      4.97s CPU      5.00s WALL (    6360 calls)
     cdiaghg      :    221.36s CPU    221.93s WALL (    8260 calls)

     Called by h_psi:
     h_psi:pot    :   3172.03s CPU   3217.22s WALL (    8720 calls)
     h_psi:calbec :   1008.93s CPU   1012.19s WALL (    8720 calls)
     vloc_psi     :   1216.53s CPU   1256.19s WALL (    8720 calls)
     add_vuspsi   :    946.52s CPU    948.81s WALL (    8720 calls)

     General routines
     calbec       :   1647.36s CPU   1652.52s WALL (   12590 calls)
     fft          :    263.74s CPU    273.55s WALL (   16740 calls)
     ffts         :      1.20s CPU      1.25s WALL (     500 calls)
     fftw         :   1365.17s CPU   1410.18s WALL ( 1104146 calls)
     interpolate  :      5.12s CPU      5.30s WALL (     265 calls)

     Parallel routines
     fft_scatt_xy :    146.53s CPU    151.78s WALL ( 1121386 calls)
     fft_scatt_yz :    243.01s CPU    262.01s WALL ( 1121386 calls)

     PWSCF        :      2h15m CPU      2h17m WALL


   This run was terminated on:  12:13:45  28Nov2020            

=------------------------------------------------------------------------------=
   JOB DONE.
=------------------------------------------------------------------------------=
