
     Program PWSCF v.6.4.1 starts on 28Nov2020 at  7:49:55 

     This program is part of the open-source Quantum ESPRESSO suite
     for quantum simulation of materials; please cite
         "P. Giannozzi et al., J. Phys.:Condens. Matter 21 395502 (2009);
         "P. Giannozzi et al., J. Phys.:Condens. Matter 29 465901 (2017);
          URL http://www.quantum-espresso.org", 
     in publications or presentations arising from this work. More details at
     http://www.quantum-espresso.org/quote

     Parallel version (MPI), running on     8 processors

     MPI processes distributed on     1 nodes
     R & G space division:  proc/nbgrp/npool/nimage =       8
     Waiting for input...
     Reading input from standard input

     Current dimensions of program PWSCF are:
     Max number of different atomic species (ntypx) = 10
     Max number of k-points (npk) =  40000
     Max angular momentum in pseudopotentials (lmaxx) =  3

     IMPORTANT: XC functional enforced from input :
     Exchange-correlation      = VDW-DF ( 1  4  4  0 1 0)
     Any further DFT definition will be discarded
     Please, verify this is what you really want

               file C.pbe-rrkjus.UPF: wavefunction(s)  2S 2P renormalized

     Subspace diagonalization in iterative solution of the eigenvalue problem:
     a serial algorithm will be used

     Message from routine setup:
     DEPRECATED: symmetry with ibrav=0, use correct ibrav instead

     Parallelization info
     --------------------
     sticks:   dense  smooth     PW     G-vecs:    dense   smooth      PW
     Min         714     285     79               126154    31889    4649
     Max         715     286     80               126163    31900    4658
     Sum        5713    2283    637              1009261   255153   37237



     bravais-lattice index     =            0
     lattice parameter (alat)  =       4.6487  a.u.
     unit-cell volume          =   10440.3175 (a.u.)^3
     number of atoms/cell      =           36
     number of atomic types    =            2
     number of electrons       =       126.00
     number of Kohn-Sham states=           76
     kinetic-energy cutoff     =      32.0000  Ry
     charge density cutoff     =     320.0000  Ry
     convergence threshold     =      1.0E-06
     mixing beta               =       0.5000
     number of iterations used =            8  plain     mixing
     Exchange-correlation      = VDW-DF ( 1  4  4  0 1 0)
     nstep                     =          200


     celldm(1)=   4.648726  celldm(2)=   0.000000  celldm(3)=   0.000000
     celldm(4)=   0.000000  celldm(5)=   0.000000  celldm(6)=   0.000000

     crystal axes: (cart. coord. in units of alat)
               a(1) = (   3.000000   0.000000   0.000000 )  
               a(2) = (   0.000000   3.464102   0.000000 )  
               a(3) = (   0.000000   0.000000  10.000000 )  

     reciprocal axes: (cart. coord. in units 2 pi/alat)
               b(1) = (  0.333333  0.000000  0.000000 )  
               b(2) = (  0.000000  0.288675  0.000000 )  
               b(3) = (  0.000000  0.000000  0.100000 )  


     PseudoPot. # 1 for C  read from file:
     ../../pseudopotentials/C.pbe-rrkjus.UPF
     MD5 check sum: 00fb224312de0c5b6853bd333518df6f
     Pseudo is Ultrasoft, Zval =  4.0
     Generated by new atomic code, or converted to UPF format
     Using radial grid of  627 points,  4 beta functions with: 
                l(1) =   0
                l(2) =   0
                l(3) =   1
                l(4) =   1
     Q(r) pseudized with 0 coefficients 


     PseudoPot. # 2 for H  read from file:
     ../../pseudopotentials/H.pbe-rrkjus_psl.1.0.0.UPF
     MD5 check sum: 3f4114867bd07edc7f1424d066fc1888
     Pseudo is Ultrasoft, Zval =  1.0
     Generated using "atomic" code by A. Dal Corso v.6.3MaX
     Using radial grid of  929 points,  2 beta functions with: 
                l(1) =   0
                l(2) =   0
     Q(r) pseudized with 0 coefficients 


     vdW kernel table read from file vdW_kernel_table
     MD5 check sum: 48e77a2e26edf626eeb0eaa751ad5cac

     atomic species   valence    mass     pseudopotential
        C              4.00    12.01070     C ( 1.00)
        H              1.00     1.00790     H ( 1.00)

      4 Sym. Ops. (no inversion) found ( 3 have fractional translation)



   Cartesian axes

     site n.     atom                  positions (alat units)
         1           C   tau(   1) = (   0.5000000   0.0000000   0.0000000  )
         2           C   tau(   2) = (   0.0000000   0.2886752   0.0000000  )
         3           C   tau(   3) = (   0.0000000   0.8660255   0.0000000  )
         4           C   tau(   4) = (   0.5000000   1.1547006   0.0000000  )
         5           C   tau(   5) = (   0.5000000   1.7320509   0.0000000  )
         6           C   tau(   6) = (   0.0000000   2.0207261   0.0000000  )
         7           C   tau(   7) = (   0.0000000   2.5980764   0.0000000  )
         8           C   tau(   8) = (   0.5000000   2.8867516   0.0000000  )
         9           C   tau(   9) = (   1.5000001   0.0000000   0.0000000  )
        10           C   tau(  10) = (   1.0000001   0.2886752   0.0000000  )
        11           C   tau(  11) = (   1.0000001   0.8660255   0.0000000  )
        12           C   tau(  12) = (   1.5000001   1.1547006   0.0000000  )
        13           C   tau(  13) = (   1.5000001   1.7320509   0.0000000  )
        14           C   tau(  14) = (   1.0000001   2.0207261   0.0000000  )
        15           C   tau(  15) = (   1.0000001   2.5980764   0.0000000  )
        16           C   tau(  16) = (   1.5000001   2.8867516   0.0000000  )
        17           C   tau(  17) = (   2.5000002   0.0000000   0.0000000  )
        18           C   tau(  18) = (   2.0000002   0.2886752   0.0000000  )
        19           C   tau(  19) = (   2.0000002   0.8660255   0.0000000  )
        20           C   tau(  20) = (   2.5000002   1.1547006   0.0000000  )
        21           C   tau(  21) = (   2.5000002   1.7320509   0.0000000  )
        22           C   tau(  22) = (   2.0000002   2.0207261   0.0000000  )
        23           C   tau(  23) = (   2.0000002   2.5980764   0.0000000  )
        24           C   tau(  24) = (   2.5000002   2.8867516   0.0000000  )
        25           C   tau(  25) = (   1.0000001   0.8763591   1.2195123  )
        26           C   tau(  26) = (   0.5090386   1.1598654   1.2195123  )
        27           C   tau(  27) = (   0.5090386   1.7268862   1.2195123  )
        28           C   tau(  28) = (   1.0000001   2.0103924   1.2195123  )
        29           C   tau(  29) = (   1.4909615   1.7268862   1.2195123  )
        30           C   tau(  30) = (   1.4909615   1.1598654   1.2195123  )
        31           H   tau(  31) = (   1.0000001   0.4329660   1.2195123  )
        32           H   tau(  32) = (   0.1250718   0.9382529   1.2195123  )
        33           H   tau(  33) = (   0.1250718   1.9484987   1.2195123  )
        34           H   tau(  34) = (   1.0000001   2.4537855   1.2195123  )
        35           H   tau(  35) = (   1.8749283   1.9484987   1.2195123  )
        36           H   tau(  36) = (   1.8749283   0.9382529   1.2195123  )

     number of k points=     9  gaussian smearing, width (Ry)=  0.0200
                       cart. coord. in units 2pi/alat
        k(    1) = (   0.0000000   0.0000000   0.0000000), wk =   0.1250000
        k(    2) = (   0.0000000   0.0721688   0.0000000), wk =   0.2500000
        k(    3) = (   0.0000000  -0.1443376   0.0000000), wk =   0.1250000
        k(    4) = (   0.0833333   0.0000000   0.0000000), wk =   0.2500000
        k(    5) = (   0.0833333   0.0721688   0.0000000), wk =   0.5000000
        k(    6) = (   0.0833333  -0.1443376   0.0000000), wk =   0.2500000
        k(    7) = (  -0.1666667   0.0000000   0.0000000), wk =   0.1250000
        k(    8) = (  -0.1666667   0.0721688   0.0000000), wk =   0.2500000
        k(    9) = (  -0.1666667  -0.1443376   0.0000000), wk =   0.1250000

     Dense  grid:  1009261 G-vectors     FFT dimensions: (  81,  96, 270)

     Smooth grid:   255153 G-vectors     FFT dimensions: (  54,  60, 180)

     Estimated max dynamical RAM per process >     423.77 MB

     Estimated total dynamical RAM >       3.31 GB

     Initial potential from superposition of free atoms

     starting charge  125.99836, renormalised to  126.00000

     negative rho (up, down):  2.445E-04 0.000E+00


     %%%%%%%%%%%%%%%%%%%%%%%%%%%%%%%%%%%%%%%%%%%%%%%%%%%%%%%%%%%%%%%%%%%%%%%%
     %                                                                      %
     % You are using vdW-DF, which was implemented by the Thonhauser group. %
     % Please cite the following two papers that made this development      %
     % possible and the two reviews that describe the various versions:     %
     %                                                                      %
     %   T. Thonhauser et al., PRL 115, 136402 (2015).                      %
     %   T. Thonhauser et al., PRB 76, 125112 (2007).                       %
     %   K. Berland et al., Rep. Prog. Phys. 78, 066501 (2015).             %
     %   D.C. Langreth et al., J. Phys.: Condens. Matter 21, 084203 (2009). %
     %                                                                      %
     %                                                                      %
     % If you are calculating the stress with vdW-DF, please also cite:     %
     %                                                                      %
     %   R. Sabatini et al., J. Phys.: Condens. Matter 24, 424209 (2012).   %
     %                                                                      %
     %%%%%%%%%%%%%%%%%%%%%%%%%%%%%%%%%%%%%%%%%%%%%%%%%%%%%%%%%%%%%%%%%%%%%%%%


     Starting wfcs are  126 randomized atomic wfcs

     total cpu time spent up to now is       19.0 secs

     Self-consistent Calculation

     iteration #  1     ecut=    32.00 Ry     beta= 0.50
     Davidson diagonalization with overlap
     ethr =  1.00E-02,  avg # of iterations =  2.0

     negative rho (up, down):  2.075E-04 0.000E+00

     total cpu time spent up to now is       52.4 secs

     total energy              =    -350.85781377 Ry
     Harris-Foulkes estimate   =    -352.96123010 Ry
     estimated scf accuracy    <       4.25153862 Ry

     iteration #  2     ecut=    32.00 Ry     beta= 0.50
     Davidson diagonalization with overlap
     ethr =  3.37E-03,  avg # of iterations =  5.6

     negative rho (up, down):  5.203E-04 0.000E+00

     total cpu time spent up to now is       81.1 secs

     total energy              =    -351.19604047 Ry
     Harris-Foulkes estimate   =    -351.35229208 Ry
     estimated scf accuracy    <       0.39749284 Ry

     iteration #  3     ecut=    32.00 Ry     beta= 0.50
     Davidson diagonalization with overlap
     ethr =  3.15E-04,  avg # of iterations = 10.1

     negative rho (up, down):  4.338E-04 0.000E+00

     total cpu time spent up to now is      114.4 secs

     total energy              =    -351.23367508 Ry
     Harris-Foulkes estimate   =    -351.25278109 Ry
     estimated scf accuracy    <       0.05664186 Ry

     iteration #  4     ecut=    32.00 Ry     beta= 0.50
     Davidson diagonalization with overlap
     ethr =  4.50E-05,  avg # of iterations =  6.7

     negative rho (up, down):  2.861E-04 0.000E+00

     total cpu time spent up to now is      146.4 secs

     total energy              =    -351.24261416 Ry
     Harris-Foulkes estimate   =    -351.24881342 Ry
     estimated scf accuracy    <       0.01876889 Ry

     iteration #  5     ecut=    32.00 Ry     beta= 0.50
     Davidson diagonalization with overlap
     ethr =  1.49E-05,  avg # of iterations =  3.2

     negative rho (up, down):  3.018E-04 0.000E+00

     total cpu time spent up to now is      173.2 secs

     total energy              =    -351.24638167 Ry
     Harris-Foulkes estimate   =    -351.24664995 Ry
     estimated scf accuracy    <       0.00253625 Ry

     iteration #  6     ecut=    32.00 Ry     beta= 0.50
     Davidson diagonalization with overlap
     ethr =  2.01E-06,  avg # of iterations =  6.4

     negative rho (up, down):  2.408E-04 0.000E+00

     total cpu time spent up to now is      202.3 secs

     total energy              =    -351.24673979 Ry
     Harris-Foulkes estimate   =    -351.24682040 Ry
     estimated scf accuracy    <       0.00027893 Ry

     iteration #  7     ecut=    32.00 Ry     beta= 0.50
     Davidson diagonalization with overlap
     ethr =  2.21E-07,  avg # of iterations =  2.3

     negative rho (up, down):  2.203E-04 0.000E+00

     total cpu time spent up to now is      227.6 secs

     total energy              =    -351.24679123 Ry
     Harris-Foulkes estimate   =    -351.24678994 Ry
     estimated scf accuracy    <       0.00002150 Ry

     iteration #  8     ecut=    32.00 Ry     beta= 0.50
     Davidson diagonalization with overlap
     ethr =  1.71E-08,  avg # of iterations =  2.3

     negative rho (up, down):  2.117E-04 0.000E+00

     total cpu time spent up to now is      257.2 secs

     total energy              =    -351.24679551 Ry
     Harris-Foulkes estimate   =    -351.24679687 Ry
     estimated scf accuracy    <       0.00000428 Ry

     iteration #  9     ecut=    32.00 Ry     beta= 0.50
     Davidson diagonalization with overlap
     ethr =  3.39E-09,  avg # of iterations =  2.2

     negative rho (up, down):  2.083E-04 0.000E+00

     total cpu time spent up to now is      283.3 secs

     End of self-consistent calculation

          k = 0.0000 0.0000 0.0000 ( 31971 PWs)   bands (ev):

   -21.9353 -20.4816 -20.4779 -20.0084 -19.9985 -19.5401 -18.5913 -18.5883
   -18.5875 -18.5862 -16.8405 -16.7990 -16.7150 -15.6606 -15.0813 -15.0804
   -15.0800 -15.0796 -13.2384 -13.2169 -13.1072 -13.1069 -13.0925 -13.0918
   -12.9651 -12.9645 -11.3242 -10.2884 -10.2882 -10.0301  -9.9426  -9.9397
    -9.6927  -9.3047  -9.1161  -9.1154  -9.0930  -9.0920  -8.9617  -8.9246
    -8.9231  -8.7460  -8.6427  -8.4160  -8.2366  -7.8585  -7.7335  -7.6083
    -7.6065  -7.0259  -6.7513  -6.7137  -6.2576  -6.2217  -6.1362  -6.0863
    -5.6364  -5.6353  -4.9133  -4.4270  -4.3154  -2.4181  -2.4164  -2.3612
    -2.3610  -0.7536  -0.0525   0.4627   0.4870   0.6896   1.3070   1.3383
     1.4048   1.4877   1.5842   1.9834

          k = 0.0000 0.0722 0.0000 ( 31929 PWs)   bands (ev):

   -21.8436 -21.1127 -19.9205 -19.9090 -19.6843 -19.5337 -19.1987 -19.1915
   -17.8242 -17.8233 -17.6101 -16.8039 -16.7993 -15.9515 -15.9514 -14.6694
   -14.5521 -14.5510 -13.7054 -13.7052 -13.2233 -13.2059 -12.4461 -12.4427
   -12.3787 -12.3768 -11.5740 -11.3144 -10.7490 -10.7483 -10.1460 -10.1454
    -9.9306  -9.7028  -9.3011  -9.1268  -8.8713  -8.6652  -8.6434  -8.6115
    -8.6102  -8.4421  -8.4378  -8.3615  -8.1713  -7.8168  -7.6392  -7.4421
    -7.0950  -6.9618  -6.9000  -6.7460  -6.6565  -6.6388  -6.0010  -5.8262
    -5.4618  -5.4141  -5.2886  -4.4261  -4.3964  -3.3759  -3.3671  -1.4276
    -1.4213  -0.1443   0.0942   0.2615   0.3232   0.7157   0.7421   0.8212
     1.2991   1.7940   1.8544   2.1971

          k = 0.0000-0.1443 0.0000 ( 31940 PWs)   bands (ev):

   -21.5801 -21.5574 -19.6830 -19.6552 -19.6548 -19.6271 -19.4977 -18.7047
   -18.7017 -16.9520 -16.9486 -16.9292 -16.9219 -16.7764 -16.7738 -14.1825
   -14.1806 -14.1609 -14.1585 -13.2387 -13.2064 -13.1785 -13.1544 -11.5709
   -11.5702 -11.5569 -11.5555 -11.3560 -11.3522 -11.3471 -11.3331 -11.2887
    -9.7127  -9.6349  -9.6183  -9.3004  -8.6939  -8.6437  -8.6193  -8.5805
    -8.3120  -8.2999  -8.2996  -8.2883  -7.6633  -7.3633  -7.3462  -7.3341
    -6.9989  -6.9763  -6.8984  -6.6883  -6.6761  -6.3701  -6.3363  -6.3059
    -6.2464  -4.7760  -4.7651  -4.4148  -4.4109  -4.1065  -4.0787  -0.5601
    -0.5582  -0.4746  -0.4610   0.3470   0.4946   0.6302   0.8635   1.1909
     1.2428   1.3948   1.5146   2.0748

          k = 0.0833 0.0000 0.0000 ( 31951 PWs)   bands (ev):

   -21.8130 -20.8410 -20.3623 -20.3580 -19.5639 -19.4066 -19.3848 -18.9363
   -17.5828 -17.5821 -16.8214 -16.8060 -16.6285 -16.2936 -15.8067 -15.5595
   -14.9084 -14.6460 -14.6440 -14.1516 -13.2182 -13.2149 -12.4308 -12.1854
   -11.7299 -11.5118 -11.5107 -11.2890 -10.2041  -9.9676  -9.9651  -9.8959
    -9.6570  -9.4715  -9.3071  -9.1800  -9.1774  -9.0034  -9.0012  -8.8716
    -8.7656  -8.7127  -8.5974  -8.2541  -8.1201  -8.0631  -8.0615  -7.6866
    -7.3106  -7.1103  -6.8933  -6.7248  -6.6988  -6.4489  -6.1085  -5.8966
    -5.3535  -5.2966  -4.7927  -4.4227  -4.2836  -3.6385  -3.3758  -1.4584
    -1.1218  -0.7885  -0.1727  -0.0853   0.1477   0.6286   0.6785   0.8647
     1.5543   1.7443   2.1337   2.2424

          k = 0.0833 0.0722 0.0000 ( 31951 PWs)   bands (ev):

   -21.7214 -20.9918 -20.7504 -20.0324 -19.5893 -19.5076 -18.8492 -18.6181
   -18.1608 -17.5001 -16.9185 -16.8070 -16.7913 -16.6198 -16.2574 -15.1621
   -14.6720 -14.5779 -14.0617 -13.9370 -13.2157 -13.2144 -12.2420 -12.2304
   -12.0099 -11.8000 -11.5377 -11.2811 -10.7476 -10.3629  -9.7952  -9.7512
    -9.7065  -9.6672  -9.3802  -9.3022  -9.1729  -9.0017  -8.8131  -8.7920
    -8.6603  -8.6513  -8.5199  -8.4983  -8.1786  -7.8431  -7.5443  -7.3615
    -7.3552  -6.9777  -6.7732  -6.7235  -6.4495  -6.3928  -6.1632  -6.0669
    -5.7950  -5.2254  -4.8507  -4.4482  -4.3718  -3.9402  -3.7372  -1.1004
    -0.7941  -0.6280  -0.1605   0.2731   0.3764   0.6419   0.8319   0.9945
     1.4458   1.6170   1.6738   1.9415

          k = 0.0833-0.1443 0.0000 ( 31876 PWs)   bands (ev):

   -21.4582 -21.4357 -20.4903 -20.4691 -19.5459 -18.6038 -18.5920 -18.5856
   -18.5729 -17.6853 -17.6805 -16.8121 -16.8044 -16.3356 -16.3167 -15.2742
   -15.2711 -13.2289 -13.2288 -13.1111 -13.1100 -13.0963 -13.0881 -13.0312
   -13.0101 -11.4205 -11.4019 -11.2695 -10.7287 -10.7171  -9.9455  -9.9352
    -9.6741  -9.5061  -9.4764  -9.3061  -9.1197  -9.1100  -9.0977  -9.0852
    -8.7480  -8.6910  -8.3303  -8.2820  -7.6135  -7.6033  -7.2930  -7.2790
    -7.1129  -6.7565  -6.7445  -6.6313  -6.6133  -6.2447  -6.1771  -6.1704
    -6.1213  -5.2336  -5.1667  -4.5936  -4.4271  -4.0615  -3.9611  -0.9824
    -0.9485   0.2250   0.3237   0.4908   0.5899   0.6667   1.0523   1.3132
     1.3349   1.3719   1.4001   1.4303

          k =-0.1667 0.0000 0.0000 ( 31854 PWs)   bands (ev):

   -21.4556 -21.4384 -20.0107 -20.0081 -20.0061 -19.9883 -19.5281 -17.6858
   -17.6807 -16.8562 -16.8324 -16.7324 -16.7032 -16.3422 -16.3094 -15.6604
   -15.6586 -15.2855 -15.2616 -13.2360 -13.2075 -13.0281 -13.0183 -11.4129
   -11.4097 -11.2507 -10.7318 -10.7139 -10.2954 -10.2928 -10.2842 -10.2823
    -9.6197  -9.4989  -9.4872  -9.3115  -8.9669  -8.9664  -8.9272  -8.9255
    -8.9219  -8.9160  -8.7216  -8.6823  -7.9714  -7.7578  -7.7407  -7.7317
    -7.2949  -7.2758  -6.9012  -6.7772  -6.7304  -6.6359  -6.6108  -5.3284
    -5.1112  -4.9009  -4.8993  -4.5678  -4.1952  -4.1709  -3.9162  -1.0053
    -0.9302  -0.7851  -0.7081   0.2360   0.4307   0.5744   0.6395   0.7917
     0.8863   1.3635   1.4087   2.2109

          k =-0.1667 0.0722 0.0000 ( 31908 PWs)   bands (ev):

   -21.3644 -21.3472 -20.6381 -20.6218 -19.5494 -19.2114 -19.1823 -17.6041
   -17.5988 -17.1801 -17.1675 -17.0223 -17.0072 -16.7885 -16.7877 -15.2591
   -15.2576 -14.3377 -14.3143 -13.5855 -13.5801 -13.2207 -13.2039 -11.5442
   -11.5234 -11.2474 -10.8408 -10.8399 -10.6284 -10.6103  -9.7601  -9.7457
    -9.6333  -9.4013  -9.3818  -9.3125  -9.2720  -9.2707  -9.2320  -9.2274
    -8.7672  -8.7504  -8.4619  -8.4392  -7.9220  -7.9168  -7.6560  -7.6436
    -7.2050  -6.9349  -6.7783  -6.6952  -6.6664  -6.6523  -6.6224  -5.3019
    -5.0926  -4.9868  -4.9376  -4.7848  -4.7289  -4.1926  -4.1921  -0.6373
    -0.5703  -0.3572  -0.2793   0.1042   0.2470   0.6554   0.7022   0.7453
     0.9939   1.4936   1.5192   1.6888

          k =-0.1667-0.1443 0.0000 ( 31784 PWs)   bands (ev):

   -21.0999 -21.0876 -21.0823 -21.0605 -19.5441 -18.2597 -18.2537 -18.2367
   -18.2338 -17.3789 -17.3698 -17.3546 -17.3506 -16.8000 -16.7989 -14.4796
   -14.4674 -14.4667 -14.4581 -13.2267 -13.2101 -12.9468 -12.9443 -12.9277
   -12.9097 -11.2394 -10.3250 -10.3140 -10.3006 -10.2765  -9.9589  -9.9474
    -9.9322  -9.9212  -9.6427  -9.3077  -9.1512  -9.1207  -9.0837  -9.0150
    -8.6438  -8.6087  -8.3967  -8.3950  -8.3950  -8.3830  -7.0859  -7.0787
    -7.0752  -7.0725  -7.0573  -6.8224  -6.7140  -5.9219  -5.8057  -5.7450
    -5.7042  -5.2536  -4.9960  -4.9780  -4.9403  -4.3121  -4.1997  -0.3621
    -0.1948  -0.1601  -0.1434   0.4419   0.6765   0.7824   1.0156   1.0583
     1.0697   1.1774   1.2980   1.3599

     the Fermi energy is    -2.3892 ev

!    total energy              =    -351.24679583 Ry
     Harris-Foulkes estimate   =    -351.24679617 Ry
     estimated scf accuracy    <       0.00000051 Ry

     The total energy is the sum of the following terms:

     one-electron contribution =   -4816.11074264 Ry
     hartree contribution      =    2427.97938994 Ry
     xc contribution           =    -112.32029236 Ry
     ewald contribution        =    2149.20764033 Ry
     smearing contrib. (-TS)   =      -0.00279110 Ry

     convergence has been achieved in   9 iterations

     Forces acting on atoms (cartesian axes, Ry/au):

     atom    1 type  1   force =    -0.00094608    0.00079913    0.00092125
     atom    2 type  1   force =     0.00091660   -0.00086020    0.00086735
     atom    3 type  1   force =     0.00381558    0.00290656   -0.00286238
     atom    4 type  1   force =    -0.00061122   -0.00068391   -0.01264341
     atom    5 type  1   force =    -0.00061122    0.00068391   -0.01264341
     atom    6 type  1   force =     0.00381558   -0.00290656   -0.00286238
     atom    7 type  1   force =     0.00091660    0.00086020    0.00086735
     atom    8 type  1   force =    -0.00094608   -0.00079913    0.00092125
     atom    9 type  1   force =     0.00094608    0.00079913    0.00092125
     atom   10 type  1   force =     0.00000000    0.00440045   -0.00296782
     atom   11 type  1   force =     0.00000000   -0.00061359   -0.01292085
     atom   12 type  1   force =     0.00061122   -0.00068391   -0.01264341
     atom   13 type  1   force =     0.00061122    0.00068391   -0.01264341
     atom   14 type  1   force =     0.00000000    0.00061359   -0.01292085
     atom   15 type  1   force =     0.00000000   -0.00440045   -0.00296782
     atom   16 type  1   force =     0.00094608   -0.00079913    0.00092125
     atom   17 type  1   force =     0.00000000   -0.00017151    0.00053757
     atom   18 type  1   force =    -0.00091660   -0.00086020    0.00086735
     atom   19 type  1   force =    -0.00381558    0.00290656   -0.00286238
     atom   20 type  1   force =     0.00000000    0.00054972    0.00126477
     atom   21 type  1   force =     0.00000000   -0.00054972    0.00126477
     atom   22 type  1   force =    -0.00381558   -0.00290656   -0.00286238
     atom   23 type  1   force =    -0.00091660    0.00086020    0.00086735
     atom   24 type  1   force =     0.00000000    0.00017151    0.00053757
     atom   25 type  1   force =     0.00000000   -0.00447407    0.01329858
     atom   26 type  1   force =    -0.00311605   -0.00184790    0.01329781
     atom   27 type  1   force =    -0.00311605    0.00184790    0.01329781
     atom   28 type  1   force =     0.00000000    0.00447407    0.01329858
     atom   29 type  1   force =     0.00311605    0.00184790    0.01329781
     atom   30 type  1   force =     0.00311605   -0.00184790    0.01329781
     atom   31 type  2   force =     0.00000000    0.00544601    0.00051518
     atom   32 type  2   force =     0.00465742    0.00252473    0.00055566
     atom   33 type  2   force =     0.00465742   -0.00252473    0.00055566
     atom   34 type  2   force =     0.00000000   -0.00544601    0.00051518
     atom   35 type  2   force =    -0.00465742   -0.00252473    0.00055566
     atom   36 type  2   force =    -0.00465742    0.00252473    0.00055566

     Total force =     0.050088     Total SCF correction =     0.001718

     BFGS Geometry Optimization

     number of scf cycles    =   1
     number of bfgs steps    =   0

     energy   new            =    -351.2467958263 Ry

     new trust radius        =       0.0140310161 bohr
     new conv_thr            =       0.0000010000 Ry


ATOMIC_POSITIONS (angstrom)
C        1.229499355   0.000422880   0.000487506
C        0.000485042   0.709685630   0.000458984
C        0.002019120   2.131960578  -0.001514707
C        1.229676555   2.840201417  -0.006690604
C        1.229676555   4.261206894  -0.006690604
C        0.002019120   4.969447733  -0.001514707
C        0.000485042   6.391722681   0.000458984
C        1.229499355   7.100985431   0.000487506
C        3.690500645   0.000422880   0.000487506
C        2.460000000   0.712469450  -0.001570503
C        2.460000000   2.130097794  -0.006837420
C        3.690323445   2.840201417  -0.006690604
C        3.690323445   4.261206894  -0.006690604
C        2.460000000   4.971310517  -0.006837420
C        2.460000000   6.388938861  -0.001570503
C        3.690500645   7.100985431   0.000487506
C        6.150000000  -0.000090760   0.000284470
C        4.919514958   0.709685630   0.000458984
C        4.917980880   2.131960578  -0.001514707
C        6.150000000   2.840854224   0.000669286
C        6.150000000   4.260554087   0.000669286
C        4.917980880   4.969447733  -0.001514707
C        4.919514958   6.391722681   0.000458984
C        6.150000000   7.101499071   0.000284470
C        2.460000000   2.153475763   3.007037303
C        1.250585968   2.852290757   3.007036900
C        1.250585968   4.249117554   3.007036900
C        2.460000000   4.947932548   3.007037303
C        3.669414032   4.249117554   3.007036900
C        3.669414032   2.852290757   3.007036900
H        2.460000000   1.067978262   3.000272624
H        0.310141227   2.309437969   3.000294042
H        0.310141227   4.791970342   3.000294042
H        2.460000000   6.033430049   3.000272624
H        4.609858773   4.791970342   3.000294042
H        4.609858773   2.309437969   3.000294042



     Writing output data file batch_graph+benzene.save/
     NEW-OLD atomic charge density approx. for the potential

     negative rho (up, down):  2.094E-04 0.000E+00

     total cpu time spent up to now is      297.3 secs

     Self-consistent Calculation

     iteration #  1     ecut=    32.00 Ry     beta= 0.50
     Davidson diagonalization with overlap
     ethr =  1.00E-06,  avg # of iterations =  4.0

     negative rho (up, down):  2.093E-04 0.000E+00

     total cpu time spent up to now is      340.7 secs

     total energy              =    -351.24889554 Ry
     Harris-Foulkes estimate   =    -351.24910576 Ry
     estimated scf accuracy    <       0.00048062 Ry

     iteration #  2     ecut=    32.00 Ry     beta= 0.50
     Davidson diagonalization with overlap
     ethr =  3.81E-07,  avg # of iterations =  2.0

     negative rho (up, down):  2.093E-04 0.000E+00

     total cpu time spent up to now is      368.1 secs

     total energy              =    -351.24896792 Ry
     Harris-Foulkes estimate   =    -351.24897845 Ry
     estimated scf accuracy    <       0.00005179 Ry

     iteration #  3     ecut=    32.00 Ry     beta= 0.50
     Davidson diagonalization with overlap
     ethr =  4.11E-08,  avg # of iterations =  2.0

     negative rho (up, down):  2.102E-04 0.000E+00

     total cpu time spent up to now is      394.9 secs

     total energy              =    -351.24897491 Ry
     Harris-Foulkes estimate   =    -351.24897606 Ry
     estimated scf accuracy    <       0.00001061 Ry

     iteration #  4     ecut=    32.00 Ry     beta= 0.50
     Davidson diagonalization with overlap
     ethr =  8.42E-09,  avg # of iterations =  2.0

     negative rho (up, down):  2.103E-04 0.000E+00

     total cpu time spent up to now is      421.9 secs

     total energy              =    -351.24897655 Ry
     Harris-Foulkes estimate   =    -351.24897672 Ry
     estimated scf accuracy    <       0.00000192 Ry

     iteration #  5     ecut=    32.00 Ry     beta= 0.50
     Davidson diagonalization with overlap
     ethr =  1.52E-09,  avg # of iterations =  2.2

     negative rho (up, down):  2.092E-04 0.000E+00

     total cpu time spent up to now is      448.0 secs

     End of self-consistent calculation

          k = 0.0000 0.0000 0.0000 ( 31971 PWs)   bands (ev):

   -21.9394 -20.4855 -20.4818 -20.0087 -20.0057 -19.5163 -18.5990 -18.5982
   -18.5889 -18.5847 -16.8377 -16.7944 -16.7204 -15.6611 -15.0968 -15.0932
   -15.0764 -15.0729 -13.2498 -13.2248 -13.1182 -13.1056 -13.1049 -13.0930
   -12.9726 -12.9671 -11.3344 -10.3073 -10.2864 -10.0324  -9.9435  -9.9411
    -9.7379  -9.2878  -9.1187  -9.1119  -9.1030  -9.0971  -8.9699  -8.9312
    -8.9161  -8.7587  -8.6534  -8.4127  -8.2415  -7.8515  -7.7403  -7.6167
    -7.6152  -7.0230  -6.7659  -6.7235  -6.2622  -6.2204  -6.1423  -6.0878
    -5.6465  -5.6347  -4.9113  -4.4273  -4.3232  -2.4349  -2.4312  -2.3567
    -2.3513  -0.7500  -0.0432   0.4584   0.4742   0.6886   1.2952   1.3360
     1.3928   1.4821   1.5860   1.9855

          k = 0.0000 0.0722 0.0000 ( 31929 PWs)   bands (ev):

   -21.8476 -21.1168 -19.9192 -19.9176 -19.6851 -19.5135 -19.2089 -19.1900
   -17.8327 -17.8233 -17.6143 -16.8007 -16.7946 -15.9591 -15.9528 -14.6709
   -14.5601 -14.5532 -13.7163 -13.7047 -13.2359 -13.2158 -12.4506 -12.4457
   -12.3908 -12.3771 -11.5757 -11.3248 -10.7645 -10.7468 -10.1496 -10.1494
    -9.9326  -9.7479  -9.2841  -9.1290  -8.8789  -8.6774  -8.6527  -8.6202
    -8.6062  -8.4477  -8.4365  -8.3650  -8.1795  -7.8056  -7.6456  -7.4413
    -7.0944  -6.9709  -6.9056  -6.7595  -6.6674  -6.6440  -5.9997  -5.8373
    -5.4585  -5.4166  -5.2912  -4.4269  -4.3997  -3.3835  -3.3725  -1.4322
    -1.4228  -0.1402   0.1015   0.2644   0.3164   0.6955   0.7277   0.8197
     1.3050   1.8004   1.8535   2.1895

          k = 0.0000-0.1443 0.0000 ( 31940 PWs)   bands (ev):

   -21.5822 -21.5634 -19.6731 -19.6620 -19.6521 -19.6408 -19.4822 -18.7084
   -18.7064 -16.9526 -16.9491 -16.9324 -16.9289 -16.7748 -16.7735 -14.1873
   -14.1807 -14.1741 -14.1606 -13.2480 -13.2162 -13.1796 -13.1611 -11.5832
   -11.5716 -11.5654 -11.5571 -11.3589 -11.3572 -11.3469 -11.3412 -11.2997
    -9.7569  -9.6360  -9.6214  -9.2834  -8.7069  -8.6539  -8.6220  -8.5943
    -8.3158  -8.3045  -8.3038  -8.2861  -7.6469  -7.3703  -7.3512  -7.3337
    -7.0027  -6.9716  -6.9036  -6.7022  -6.6871  -6.3717  -6.3418  -6.3206
    -6.2527  -4.7662  -4.7563  -4.4229  -4.4131  -4.1184  -4.0901  -0.5648
    -0.5575  -0.4793  -0.4596   0.3491   0.4822   0.6150   0.8732   1.1891
     1.2460   1.3910   1.5100   2.0822

          k = 0.0833 0.0000 0.0000 ( 31951 PWs)   bands (ev):

   -21.8170 -20.8450 -20.3661 -20.3619 -19.5416 -19.4108 -19.3871 -18.9407
   -17.5870 -17.5861 -16.8176 -16.8015 -16.6350 -16.2979 -15.8133 -15.5600
   -14.9091 -14.6514 -14.6497 -14.1584 -13.2306 -13.2248 -12.4330 -12.1919
   -11.7379 -11.5167 -11.5160 -11.2996 -10.2049  -9.9687  -9.9666  -9.8977
    -9.7030  -9.4786  -9.2905  -9.1833  -9.1816  -9.0069  -9.0050  -8.8748
    -8.7747  -8.7264  -8.6038  -8.2519  -8.1241  -8.0714  -8.0701  -7.6862
    -7.3045  -7.1128  -6.8989  -6.7368  -6.7086  -6.4542  -6.1195  -5.8952
    -5.3502  -5.2958  -4.7903  -4.4244  -4.2925  -3.6442  -3.3853  -1.4577
    -1.1270  -0.7849  -0.1734  -0.0896   0.1552   0.6098   0.6612   0.8636
     1.5564   1.7469   2.1286   2.2452

          k = 0.0833 0.0722 0.0000 ( 31951 PWs)   bands (ev):

   -21.7254 -20.9958 -20.7545 -20.0362 -19.5823 -19.4944 -18.8536 -18.6224
   -18.1651 -17.5044 -16.9195 -16.8034 -16.7895 -16.6251 -16.2615 -15.1680
   -14.6784 -14.5799 -14.0640 -13.9426 -13.2270 -13.2255 -12.2484 -12.2346
   -12.0167 -11.8029 -11.5397 -11.2917 -10.7532 -10.3680  -9.7971  -9.7540
    -9.7130  -9.7090  -9.3869  -9.2860  -9.1805  -9.0044  -8.8175  -8.7952
    -8.6694  -8.6619  -8.5260  -8.4994  -8.1824  -7.8409  -7.5456  -7.3666
    -7.3579  -6.9776  -6.7850  -6.7349  -6.4556  -6.3969  -6.1665  -6.0706
    -5.7957  -5.2256  -4.8452  -4.4495  -4.3760  -3.9515  -3.7438  -1.1052
    -0.7944  -0.6310  -0.1576   0.2782   0.3733   0.6241   0.8163   0.9929
     1.4508   1.6188   1.6688   1.9339

          k = 0.0833-0.1443 0.0000 ( 31876 PWs)   bands (ev):

   -21.4603 -21.4416 -20.4924 -20.4752 -19.5212 -18.6053 -18.5985 -18.5908
   -18.5769 -17.6889 -17.6854 -16.8072 -16.8012 -16.3389 -16.3214 -15.2794
   -15.2785 -13.2391 -13.2376 -13.1176 -13.1092 -13.0973 -13.0970 -13.0341
   -13.0173 -11.4232 -11.4109 -11.2807 -10.7312 -10.7212  -9.9491  -9.9442
    -9.7198  -9.5069  -9.4787  -9.2892  -9.1225  -9.1134  -9.1047  -9.0930
    -8.7560  -8.7035  -8.3302  -8.2850  -7.6187  -7.6029  -7.2988  -7.2777
    -7.1054  -6.7657  -6.7593  -6.6347  -6.6256  -6.2490  -6.1817  -6.1698
    -6.1255  -5.2325  -5.1679  -4.5893  -4.4295  -4.0697  -3.9713  -0.9850
    -0.9542   0.2285   0.3231   0.4919   0.5772   0.6549   1.0601   1.3083
     1.3260   1.3705   1.4022   1.4203

          k =-0.1667 0.0000 0.0000 ( 31854 PWs)   bands (ev):

   -21.4569 -21.4453 -20.0152 -20.0056 -20.0055 -20.0016 -19.5053 -17.6899
   -17.6850 -16.8518 -16.8286 -16.7355 -16.7074 -16.3462 -16.3183 -15.6665
   -15.6649 -15.2789 -15.2693 -13.2449 -13.2199 -13.0353 -13.0269 -11.4140
   -11.4111 -11.2616 -10.7406 -10.7189 -10.3031 -10.3003 -10.2812 -10.2808
    -9.6668  -9.5005  -9.4883  -9.2944  -8.9703  -8.9660  -8.9448  -8.9321
    -8.9321  -8.9122  -8.7308  -8.6961  -7.9607  -7.7549  -7.7466  -7.7403
    -7.3103  -7.2808  -6.9034  -6.7862  -6.7450  -6.6272  -6.6178  -5.3200
    -5.1147  -4.9000  -4.8918  -4.5678  -4.2068  -4.1788  -3.9304  -1.0065
    -0.9239  -0.7871  -0.7138   0.2349   0.4241   0.5772   0.6217   0.7694
     0.8920   1.3622   1.4081   2.2155

          k =-0.1667 0.0722 0.0000 ( 31908 PWs)   bands (ev):

   -21.3656 -21.3541 -20.6392 -20.6288 -19.5249 -19.2122 -19.1897 -17.6082
   -17.6031 -17.1812 -17.1743 -17.0244 -17.0106 -16.7868 -16.7860 -15.2648
   -15.2635 -14.3338 -14.3224 -13.5915 -13.5862 -13.2311 -13.2163 -11.5398
   -11.5319 -11.2582 -10.8433 -10.8424 -10.6372 -10.6157  -9.7699  -9.7511
    -9.6795  -9.4029  -9.3828  -9.2963  -9.2801  -9.2709  -9.2353  -9.2303
    -8.7761  -8.7583  -8.4664  -8.4416  -7.9274  -7.9216  -7.6689  -7.6462
    -7.1980  -6.9390  -6.7897  -6.7024  -6.6612  -6.6603  -6.6328  -5.2922
    -5.0940  -4.9807  -4.9381  -4.7883  -4.7345  -4.2044  -4.2043  -0.6386
    -0.5743  -0.3585  -0.2751   0.1027   0.2399   0.6569   0.6833   0.7233
     0.9993   1.4913   1.5182   1.6943

          k =-0.1667-0.1443 0.0000 ( 31784 PWs)   bands (ev):

   -21.1009 -21.0908 -21.0837 -21.0713 -19.5192 -18.2615 -18.2535 -18.2435
   -18.2423 -17.3807 -17.3717 -17.3603 -17.3569 -16.7971 -16.7957 -14.4830
   -14.4733 -14.4724 -14.4662 -13.2364 -13.2215 -12.9420 -12.9417 -12.9355
   -12.9193 -11.2504 -10.3302 -10.3143 -10.3137 -10.2871  -9.9629  -9.9512
    -9.9341  -9.9238  -9.6889  -9.2910  -9.1503  -9.1226  -9.0880  -9.0164
    -8.6518  -8.6210  -8.4116  -8.4020  -8.3948  -8.3841  -7.0821  -7.0816
    -7.0799  -7.0675  -7.0650  -6.8309  -6.7301  -5.9214  -5.8084  -5.7482
    -5.7104  -5.2436  -4.9955  -4.9803  -4.9439  -4.3203  -4.2113  -0.3589
    -0.1989  -0.1665  -0.1493   0.4382   0.6595   0.7801   1.0099   1.0597
     1.0674   1.1787   1.2829   1.3669

     the Fermi energy is    -2.3935 ev

!    total energy              =    -351.24897679 Ry
     Harris-Foulkes estimate   =    -351.24897701 Ry
     estimated scf accuracy    <       0.00000043 Ry

     The total energy is the sum of the following terms:

     one-electron contribution =   -4812.36104486 Ry
     hartree contribution      =    2426.09682705 Ry
     xc contribution           =    -112.32534444 Ry
     ewald contribution        =    2147.34334739 Ry
     smearing contrib. (-TS)   =      -0.00276193 Ry

     convergence has been achieved in   5 iterations

     Forces acting on atoms (cartesian axes, Ry/au):

     atom    1 type  1   force =     0.00075041    0.00039919    0.00076920
     atom    2 type  1   force =     0.00144658    0.00049228    0.00105919
     atom    3 type  1   force =    -0.00001408   -0.00028616   -0.00308987
     atom    4 type  1   force =     0.00150934    0.00132985   -0.01155833
     atom    5 type  1   force =     0.00150934   -0.00132985   -0.01155833
     atom    6 type  1   force =    -0.00001408    0.00028616   -0.00308987
     atom    7 type  1   force =     0.00144658   -0.00049228    0.00105919
     atom    8 type  1   force =     0.00075041   -0.00039919    0.00076920
     atom    9 type  1   force =    -0.00075041    0.00039919    0.00076920
     atom   10 type  1   force =     0.00000000    0.00057698   -0.00350675
     atom   11 type  1   force =     0.00000000    0.00150792   -0.01189029
     atom   12 type  1   force =    -0.00150934    0.00132985   -0.01155833
     atom   13 type  1   force =    -0.00150934   -0.00132985   -0.01155833
     atom   14 type  1   force =     0.00000000   -0.00150792   -0.01189029
     atom   15 type  1   force =     0.00000000   -0.00057698   -0.00350675
     atom   16 type  1   force =    -0.00075041   -0.00039919    0.00076920
     atom   17 type  1   force =     0.00000000    0.00010898    0.00101835
     atom   18 type  1   force =    -0.00144658    0.00049228    0.00105919
     atom   19 type  1   force =     0.00001408   -0.00028616   -0.00308987
     atom   20 type  1   force =     0.00000000    0.00079633    0.00061756
     atom   21 type  1   force =     0.00000000   -0.00079633    0.00061756
     atom   22 type  1   force =     0.00001408    0.00028616   -0.00308987
     atom   23 type  1   force =    -0.00144658   -0.00049228    0.00105919
     atom   24 type  1   force =     0.00000000   -0.00010898    0.00101835
     atom   25 type  1   force =     0.00000000    0.00577379    0.01219386
     atom   26 type  1   force =     0.00486640    0.00250412    0.01219745
     atom   27 type  1   force =     0.00486640   -0.00250412    0.01219745
     atom   28 type  1   force =     0.00000000   -0.00577379    0.01219386
     atom   29 type  1   force =    -0.00486640   -0.00250412    0.01219745
     atom   30 type  1   force =    -0.00486640    0.00250412    0.01219745
     atom   31 type  2   force =     0.00000000   -0.00099516    0.00091051
     atom   32 type  2   force =    -0.00040869   -0.00033528    0.00095075
     atom   33 type  2   force =    -0.00040869    0.00033528    0.00095075
     atom   34 type  2   force =     0.00000000    0.00099516    0.00091051
     atom   35 type  2   force =     0.00040869    0.00033528    0.00095075
     atom   36 type  2   force =     0.00040869   -0.00033528    0.00095075

     Total force =     0.044858     Total SCF correction =     0.001669

     number of scf cycles    =   2
     number of bfgs steps    =   1

     energy   old            =    -351.2467958263 Ry
     energy   new            =    -351.2489767944 Ry

     CASE: energy  _new < energy  _old

     new trust radius        =       0.0154341178 bohr
     new conv_thr            =       0.0000010000 Ry


ATOMIC_POSITIONS (angstrom)
C        1.229428771   0.000807533   0.001028168
C        0.001237326   0.709561668   0.001073417
C        0.003251593   2.132812764  -0.003414802
C        1.229953311   2.840398137  -0.014425935
C        1.229953311   4.261010174  -0.014425935
C        0.003251593   4.968595547  -0.003414802
C        0.001237326   6.391846643   0.001073417
C        1.229428771   7.100600778   0.001028168
C        3.690571229   0.000807533   0.001028168
C        2.460000000   0.714077489  -0.003635945
C        2.460000000   2.130373335  -0.014767136
C        3.690046689   2.840398137  -0.014425935
C        3.690046689   4.261010174  -0.014425935
C        2.460000000   4.971034976  -0.014767136
C        2.460000000   6.387330822  -0.003635945
C        3.690571229   7.100600778   0.001028168
C        6.150000000  -0.000112069   0.000779149
C        4.918762674   0.709561668   0.001073417
C        4.916748407   2.132812764  -0.003414802
C        6.150000000   2.841282985   0.001273596
C        6.150000000   4.260125326   0.001273596
C        4.916748407   4.968595547  -0.003414802
C        4.918762674   6.391846643   0.001073417
C        6.150000000   7.101520380   0.000779149
C        2.460000000   2.153842058   3.015184981
C        1.251106992   2.852479616   3.015185459
C        1.251106992   4.248928695   3.015185459
C        2.460000000   4.947566253   3.015184981
C        3.668893008   4.248928695   3.015185459
C        3.668893008   2.852479616   3.015185459
H        2.460000000   1.069430586   3.000726113
H        0.311522439   2.310150921   3.000773314
H        0.311522439   4.791257390   3.000773314
H        2.460000000   6.031977725   3.000726113
H        4.608477561   4.791257390   3.000773314
H        4.608477561   2.310150921   3.000773314



     Writing output data file batch_graph+benzene.save/
     NEW-OLD atomic charge density approx. for the potential

     negative rho (up, down):  2.108E-04 0.000E+00

     total cpu time spent up to now is      462.2 secs

     Self-consistent Calculation

     iteration #  1     ecut=    32.00 Ry     beta= 0.50
     Davidson diagonalization with overlap
     ethr =  1.00E-06,  avg # of iterations =  5.0

     negative rho (up, down):  2.106E-04 0.000E+00

     total cpu time spent up to now is      506.9 secs

     total energy              =    -351.25099816 Ry
     Harris-Foulkes estimate   =    -351.25123457 Ry
     estimated scf accuracy    <       0.00053544 Ry

     iteration #  2     ecut=    32.00 Ry     beta= 0.50
     Davidson diagonalization with overlap
     ethr =  4.25E-07,  avg # of iterations =  2.0

     negative rho (up, down):  2.108E-04 0.000E+00

     total cpu time spent up to now is      534.5 secs

     total energy              =    -351.25108823 Ry
     Harris-Foulkes estimate   =    -351.25110212 Ry
     estimated scf accuracy    <       0.00006159 Ry

     iteration #  3     ecut=    32.00 Ry     beta= 0.50
     Davidson diagonalization with overlap
     ethr =  4.89E-08,  avg # of iterations =  2.0

     negative rho (up, down):  2.110E-04 0.000E+00

     total cpu time spent up to now is      561.5 secs

     total energy              =    -351.25109736 Ry
     Harris-Foulkes estimate   =    -351.25109907 Ry
     estimated scf accuracy    <       0.00001400 Ry

     iteration #  4     ecut=    32.00 Ry     beta= 0.50
     Davidson diagonalization with overlap
     ethr =  1.11E-08,  avg # of iterations =  2.0

     negative rho (up, down):  2.116E-04 0.000E+00

     total cpu time spent up to now is      588.2 secs

     total energy              =    -351.25109941 Ry
     Harris-Foulkes estimate   =    -351.25110010 Ry
     estimated scf accuracy    <       0.00000350 Ry

     iteration #  5     ecut=    32.00 Ry     beta= 0.50
     Davidson diagonalization with overlap
     ethr =  2.78E-09,  avg # of iterations =  2.2

     negative rho (up, down):  2.105E-04 0.000E+00

     total cpu time spent up to now is      613.7 secs

     End of self-consistent calculation

          k = 0.0000 0.0000 0.0000 ( 31971 PWs)   bands (ev):

   -21.9424 -20.4892 -20.4843 -20.0151 -20.0052 -19.5228 -18.6057 -18.6041
   -18.5888 -18.5857 -16.8403 -16.7980 -16.7267 -15.6635 -15.1065 -15.1017
   -15.0747 -15.0703 -13.2532 -13.2281 -13.1232 -13.1145 -13.1049 -13.0951
   -12.9779 -12.9690 -11.3411 -10.3170 -10.2854 -10.0339  -9.9451  -9.9443
    -9.7413  -9.2905  -9.1204  -9.1100  -9.1098  -9.1030  -8.9747  -8.9374
    -8.9153  -8.7638  -8.6567  -8.4109  -8.2426  -7.8487  -7.7443  -7.6204
    -7.6196  -7.0359  -6.7675  -6.7250  -6.2637  -6.2183  -6.1459  -6.0947
    -5.6513  -5.6369  -4.9093  -4.4362  -4.3372  -2.4439  -2.4389  -2.3560
    -2.3493  -0.7487  -0.0404   0.4639   0.4736   0.6864   1.2894   1.3334
     1.3831   1.4763   1.5857   1.9874

          k = 0.0000 0.0722 0.0000 ( 31929 PWs)   bands (ev):

   -21.8506 -21.1199 -19.9255 -19.9172 -19.6875 -19.5201 -19.2153 -19.1909
   -17.8387 -17.8238 -17.6174 -16.8059 -16.7982 -15.9645 -15.9547 -14.6735
   -14.5655 -14.5546 -13.7229 -13.7050 -13.2400 -13.2202 -12.4559 -12.4468
   -12.3988 -12.3771 -11.5783 -11.3318 -10.7734 -10.7460 -10.1533 -10.1523
    -9.9337  -9.7510  -9.2871  -9.1303  -8.8831  -8.6809  -8.6555  -8.6273
    -8.6050  -8.4528  -8.4380  -8.3684  -8.1836  -7.8011  -7.6489  -7.4414
    -7.0996  -6.9752  -6.9086  -6.7612  -6.6688  -6.6571  -6.0020  -5.8424
    -5.4553  -5.4175  -5.2936  -4.4355  -4.4110  -3.3899  -3.3780  -1.4349
    -1.4240  -0.1361   0.1040   0.2706   0.3153   0.6839   0.7202   0.8174
     1.3076   1.8002   1.8520   2.1814

          k = 0.0000-0.1443 0.0000 ( 31940 PWs)   bands (ev):

   -21.5814 -21.5703 -19.6750 -19.6647 -19.6509 -19.6479 -19.4907 -18.7125
   -18.7088 -16.9577 -16.9482 -16.9371 -16.9300 -16.7803 -16.7802 -14.1889
   -14.1848 -14.1782 -14.1645 -13.2510 -13.2206 -13.1800 -13.1678 -11.5921
   -11.5787 -11.5631 -11.5585 -11.3624 -11.3591 -11.3488 -11.3462 -11.3079
    -9.7599  -9.6380  -9.6215  -9.2864  -8.7107  -8.6568  -8.6211  -8.6044
    -8.3236  -8.3099  -8.3002  -8.2889  -7.6423  -7.3744  -7.3537  -7.3308
    -7.0042  -6.9741  -6.9174  -6.7077  -6.6883  -6.3711  -6.3440  -6.3281
    -6.2597  -4.7615  -4.7525  -4.4256  -4.4151  -4.1355  -4.1070  -0.5651
    -0.5522  -0.4824  -0.4633   0.3506   0.4807   0.6107   0.8752   1.1871
     1.2463   1.3898   1.5013   2.0815

          k = 0.0833 0.0000 0.0000 ( 31951 PWs)   bands (ev):

   -21.8201 -20.8481 -20.3698 -20.3644 -19.5459 -19.4133 -19.3932 -18.9441
   -17.5909 -17.5884 -16.8212 -16.8050 -16.6401 -16.3016 -15.8174 -15.5625
   -14.9115 -14.6543 -14.6541 -14.1623 -13.2345 -13.2293 -12.4359 -12.1956
   -11.7423 -11.5204 -11.5195 -11.3066 -10.2075  -9.9705  -9.9702  -9.8984
    -9.7065  -9.4826  -9.2933  -9.1859  -9.1858  -9.0096  -9.0095  -8.8767
    -8.7787  -8.7321  -8.6044  -8.2508  -8.1251  -8.0751  -8.0750  -7.6888
    -7.3063  -7.1140  -6.9057  -6.7443  -6.7095  -6.4602  -6.1245  -5.8974
    -5.3483  -5.2950  -4.7888  -4.4332  -4.3056  -3.6512  -3.3922  -1.4588
    -1.1291  -0.7839  -0.1701  -0.0917   0.1577   0.6032   0.6537   0.8614
     1.5581   1.7475   2.1253   2.2471

          k = 0.0833 0.0722 0.0000 ( 31951 PWs)   bands (ev):

   -21.7284 -20.9990 -20.7576 -20.0392 -19.5851 -19.5011 -18.8568 -18.6258
   -18.1684 -17.5075 -16.9213 -16.8079 -16.7939 -16.6298 -16.2650 -15.1717
   -14.6821 -14.5827 -14.0667 -13.9462 -13.2310 -13.2299 -12.2523 -12.2381
   -12.0208 -11.8059 -11.5427 -11.2988 -10.7568 -10.3716  -9.7983  -9.7559
    -9.7162  -9.7131  -9.3908  -9.2892  -9.1846  -9.0059  -8.8194  -8.7987
    -8.6732  -8.6659  -8.5270  -8.5020  -8.1856  -7.8399  -7.5484  -7.3710
    -7.3597  -6.9895  -6.7863  -6.7373  -6.4600  -6.3998  -6.1690  -6.0739
    -5.7969  -5.2249  -4.8422  -4.4571  -4.3838  -3.9635  -3.7520  -1.1071
    -0.7938  -0.6325  -0.1554   0.2804   0.3764   0.6178   0.8068   0.9906
     1.4534   1.6203   1.6644   1.9287

          k = 0.0833-0.1443 0.0000 ( 31876 PWs)   bands (ev):

   -21.4596 -21.4486 -20.4916 -20.4821 -19.5273 -18.6079 -18.6043 -18.5897
   -18.5826 -17.6929 -17.6879 -16.8102 -16.8064 -16.3396 -16.3280 -15.2840
   -15.2814 -13.2419 -13.2410 -13.1240 -13.1136 -13.0992 -13.0973 -13.0349
   -13.0252 -11.4231 -11.4181 -11.2882 -10.7319 -10.7269  -9.9524  -9.9484
    -9.7233  -9.5088  -9.4787  -9.2920  -9.1225  -9.1139  -9.1127  -9.0996
    -8.7590  -8.7073  -8.3303  -8.2848  -7.6210  -7.6067  -7.3015  -7.2811
    -7.1170  -6.7665  -6.7608  -6.6373  -6.6320  -6.2495  -6.1855  -6.1680
    -6.1317  -5.2303  -5.1701  -4.5901  -4.4368  -4.0791  -3.9865  -0.9842
    -0.9576   0.2368   0.3268   0.4933   0.5732   0.6469   1.0616   1.3058
     1.3195   1.3688   1.4014   1.4128

          k =-0.1667 0.0000 0.0000 ( 31854 PWs)   bands (ev):

   -21.4569 -21.4514 -20.0190 -20.0105 -20.0087 -20.0015 -19.5126 -17.6931
   -17.6880 -16.8526 -16.8315 -16.7392 -16.7146 -16.3467 -16.3264 -15.6696
   -15.6691 -15.2769 -15.2762 -13.2483 -13.2239 -13.0393 -13.0321 -11.4161
   -11.4142 -11.2690 -10.7456 -10.7218 -10.3140 -10.3064 -10.2828 -10.2745
    -9.6705  -9.5020  -9.4887  -9.2972  -8.9732  -8.9680  -8.9556  -8.9370
    -8.9343  -8.9122  -8.7326  -8.7014  -7.9557  -7.7529  -7.7493  -7.7446
    -7.3170  -7.2835  -6.9220  -6.7869  -6.7483  -6.6258  -6.6241  -5.3154
    -5.1175  -4.8973  -4.8879  -4.5700  -4.2265  -4.1811  -3.9476  -1.0050
    -0.9244  -0.7851  -0.7179   0.2401   0.4198   0.5788   0.6163   0.7549
     0.8939   1.3601   1.4065   2.2158

          k =-0.1667 0.0722 0.0000 ( 31908 PWs)   bands (ev):

   -21.3656 -21.3602 -20.6392 -20.6351 -19.5307 -19.2121 -19.1971 -17.6114
   -17.6061 -17.1810 -17.1805 -17.0268 -17.0128 -16.7932 -16.7915 -15.2682
   -15.2674 -14.3324 -14.3295 -13.5950 -13.5898 -13.2359 -13.2203 -11.5390
   -11.5387 -11.2653 -10.8467 -10.8449 -10.6423 -10.6186  -9.7755  -9.7538
    -9.6829  -9.4043  -9.3834  -9.2988  -9.2862  -9.2722  -9.2378  -9.2344
    -8.7801  -8.7599  -8.4670  -8.4419  -7.9343  -7.9218  -7.6755  -7.6484
    -7.2039  -6.9395  -6.7954  -6.7039  -6.6686  -6.6585  -6.6414  -5.2870
    -5.0946  -4.9785  -4.9359  -4.7899  -4.7364  -4.2242  -4.2235  -0.6358
    -0.5751  -0.3583  -0.2760   0.1062   0.2358   0.6583   0.6764   0.7096
     1.0013   1.4886   1.5164   1.6980

          k =-0.1667-0.1443 0.0000 ( 31784 PWs)   bands (ev):

   -21.0985 -21.0918 -21.0861 -21.0828 -19.5254 -18.2625 -18.2520 -18.2502
   -18.2493 -17.3787 -17.3716 -17.3686 -17.3625 -16.8026 -16.8004 -14.4854
   -14.4783 -14.4749 -14.4710 -13.2406 -13.2248 -12.9429 -12.9398 -12.9382
   -12.9300 -11.2576 -10.3316 -10.3227 -10.3114 -10.2959  -9.9630  -9.9545
    -9.9360  -9.9312  -9.6923  -9.2941  -9.1515  -9.1251  -9.0899  -9.0150
    -8.6534  -8.6242  -8.4181  -8.4076  -8.3953  -8.3864  -7.0941  -7.0885
    -7.0805  -7.0736  -7.0662  -6.8316  -6.7319  -5.9192  -5.8089  -5.7486
    -5.7176  -5.2390  -4.9950  -4.9788  -4.9471  -4.3369  -4.2313  -0.3504
    -0.2001  -0.1696  -0.1529   0.4450   0.6496   0.7810   1.0082   1.0553
     1.0651   1.1802   1.2683   1.3693

     the Fermi energy is    -2.3970 ev

!    total energy              =    -351.25109980 Ry
     Harris-Foulkes estimate   =    -351.25110025 Ry
     estimated scf accuracy    <       0.00000063 Ry

     The total energy is the sum of the following terms:

     one-electron contribution =   -4808.25556056 Ry
     hartree contribution      =    2424.03200055 Ry
     xc contribution           =    -112.32878849 Ry
     ewald contribution        =    2145.30399532 Ry
     smearing contrib. (-TS)   =      -0.00274662 Ry

     convergence has been achieved in   5 iterations

     Forces acting on atoms (cartesian axes, Ry/au):

     atom    1 type  1   force =     0.00187761   -0.00019499    0.00047837
     atom    2 type  1   force =     0.00055984    0.00193066    0.00068990
     atom    3 type  1   force =    -0.00302517   -0.00240605   -0.00273907
     atom    4 type  1   force =     0.00167661    0.00138135   -0.01051719
     atom    5 type  1   force =     0.00167661   -0.00138135   -0.01051719
     atom    6 type  1   force =    -0.00302517    0.00240605   -0.00273907
     atom    7 type  1   force =     0.00055984   -0.00193066    0.00068990
     atom    8 type  1   force =     0.00187761    0.00019499    0.00047837
     atom    9 type  1   force =    -0.00187761   -0.00019499    0.00047837
     atom   10 type  1   force =     0.00000000   -0.00320935   -0.00330999
     atom   11 type  1   force =     0.00000000    0.00207143   -0.01049100
     atom   12 type  1   force =    -0.00167661    0.00138135   -0.01051719
     atom   13 type  1   force =    -0.00167661   -0.00138135   -0.01051719
     atom   14 type  1   force =     0.00000000   -0.00207143   -0.01049100
     atom   15 type  1   force =     0.00000000    0.00320935   -0.00330999
     atom   16 type  1   force =    -0.00187761    0.00019499    0.00047837
     atom   17 type  1   force =     0.00000000    0.00037319    0.00147811
     atom   18 type  1   force =    -0.00055984    0.00193066    0.00068990
     atom   19 type  1   force =     0.00302517   -0.00240605   -0.00273907
     atom   20 type  1   force =     0.00000000   -0.00024607   -0.00025657
     atom   21 type  1   force =     0.00000000    0.00024607   -0.00025657
     atom   22 type  1   force =     0.00302517    0.00240605   -0.00273907
     atom   23 type  1   force =    -0.00055984   -0.00193066    0.00068990
     atom   24 type  1   force =     0.00000000   -0.00037319    0.00147811
     atom   25 type  1   force =     0.00000000    0.00609929    0.01093539
     atom   26 type  1   force =     0.00495756    0.00276575    0.01095379
     atom   27 type  1   force =     0.00495756   -0.00276575    0.01095379
     atom   28 type  1   force =     0.00000000   -0.00609929    0.01093539
     atom   29 type  1   force =    -0.00495756   -0.00276575    0.01095379
     atom   30 type  1   force =    -0.00495756    0.00276575    0.01095379
     atom   31 type  2   force =     0.00000000   -0.00232374    0.00127353
     atom   32 type  2   force =    -0.00148044   -0.00093502    0.00131945
     atom   33 type  2   force =    -0.00148044    0.00093502    0.00131945
     atom   34 type  2   force =     0.00000000    0.00232374    0.00127353
     atom   35 type  2   force =     0.00148044    0.00093502    0.00131945
     atom   36 type  2   force =     0.00148044   -0.00093502    0.00131945

     Total force =     0.042616     Total SCF correction =     0.002141

     number of scf cycles    =   3
     number of bfgs steps    =   2

     energy   old            =    -351.2489767944 Ry
     energy   new            =    -351.2510998041 Ry

     CASE: energy  _new < energy  _old

     new trust radius        =       0.0231511766 bohr
     new conv_thr            =       0.0000010000 Ry


ATOMIC_POSITIONS (angstrom)
C        1.230011960   0.001035218   0.001701483
C        0.001815045   0.710285652   0.001796942
C        0.003334231   2.132866928  -0.006206031
C        1.230421073   2.840663551  -0.026136675
C        1.230421073   4.260744760  -0.026136675
C        0.003334231   4.968541383  -0.006206031
C        0.001815045   6.391122659   0.001796942
C        1.230011960   7.100373093   0.001701483
C        3.689988040   0.001035218   0.001701483
C        2.460000000   0.714233046  -0.006783466
C        2.460000000   2.131108779  -0.026542801
C        3.689578927   2.840663551  -0.026136675
C        3.689578927   4.260744760  -0.026136675
C        2.460000000   4.970299532  -0.026542801
C        2.460000000   6.387175265  -0.006783466
C        3.689988040   7.100373093   0.001701483
C        6.150000000   0.000021912   0.001863227
C        4.918184955   0.710285652   0.001796942
C        4.916665769   2.132866928  -0.006206031
C        6.150000000   2.841249106   0.001672478
C        6.150000000   4.260159205   0.001672478
C        4.916665769   4.968541383  -0.006206031
C        4.918184955   6.391122659   0.001796942
C        6.150000000   7.101386399   0.001863227
C        2.460000000   2.154220425   3.027408252
C        1.251668243   2.852777551   3.027420044
C        1.251668243   4.248630760   3.027420044
C        2.460000000   4.947187887   3.027408252
C        3.668331757   4.248630760   3.027420044
C        3.668331757   2.852777551   3.027420044
H        2.460000000   1.071119329   3.001682051
H        0.313214639   2.311002994   3.001774366
H        0.313214639   4.790405317   3.001774366
H        2.460000000   6.030288982   3.001682051
H        4.606785361   4.790405317   3.001774366
H        4.606785361   2.311002994   3.001774366



     Writing output data file batch_graph+benzene.save/
     NEW-OLD atomic charge density approx. for the potential

     negative rho (up, down):  2.133E-04 0.000E+00

     total cpu time spent up to now is      627.8 secs

     Self-consistent Calculation

     iteration #  1     ecut=    32.00 Ry     beta= 0.50
     Davidson diagonalization with overlap
     ethr =  1.00E-06,  avg # of iterations =  4.0

     negative rho (up, down):  2.127E-04 0.000E+00

     total cpu time spent up to now is      675.0 secs

     total energy              =    -351.25370016 Ry
     Harris-Foulkes estimate   =    -351.25422480 Ry
     estimated scf accuracy    <       0.00118280 Ry

     iteration #  2     ecut=    32.00 Ry     beta= 0.50
     Davidson diagonalization with overlap
     ethr =  9.39E-07,  avg # of iterations =  2.0

     negative rho (up, down):  2.138E-04 0.000E+00

     total cpu time spent up to now is      702.3 secs

     total energy              =    -351.25389674 Ry
     Harris-Foulkes estimate   =    -351.25393830 Ry
     estimated scf accuracy    <       0.00015389 Ry

     iteration #  3     ecut=    32.00 Ry     beta= 0.50
     Davidson diagonalization with overlap
     ethr =  1.22E-07,  avg # of iterations =  2.0

     negative rho (up, down):  2.125E-04 0.000E+00

     total cpu time spent up to now is      729.7 secs

     total energy              =    -351.25391996 Ry
     Harris-Foulkes estimate   =    -351.25392916 Ry
     estimated scf accuracy    <       0.00004179 Ry

     iteration #  4     ecut=    32.00 Ry     beta= 0.50
     Davidson diagonalization with overlap
     ethr =  3.32E-08,  avg # of iterations =  2.2

     negative rho (up, down):  2.140E-04 0.000E+00

     total cpu time spent up to now is      755.7 secs

     total energy              =    -351.25392695 Ry
     Harris-Foulkes estimate   =    -351.25392973 Ry
     estimated scf accuracy    <       0.00001203 Ry

     iteration #  5     ecut=    32.00 Ry     beta= 0.50
     Davidson diagonalization with overlap
     ethr =  9.55E-09,  avg # of iterations =  2.2

     negative rho (up, down):  2.134E-04 0.000E+00

     total cpu time spent up to now is      781.2 secs

     total energy              =    -351.25392938 Ry
     Harris-Foulkes estimate   =    -351.25392949 Ry
     estimated scf accuracy    <       0.00000124 Ry

     iteration #  6     ecut=    32.00 Ry     beta= 0.50
     Davidson diagonalization with overlap
     ethr =  9.83E-10,  avg # of iterations =  2.2

     negative rho (up, down):  2.124E-04 0.000E+00

     total cpu time spent up to now is      807.6 secs

     End of self-consistent calculation

          k = 0.0000 0.0000 0.0000 ( 31971 PWs)   bands (ev):

   -21.9471 -20.4928 -20.4900 -20.0193 -20.0098 -19.5288 -18.6108 -18.6079
   -18.5935 -18.5923 -16.8415 -16.8011 -16.7338 -15.6695 -15.1096 -15.1048
   -15.0810 -15.0787 -13.2556 -13.2303 -13.1256 -13.1206 -13.1084 -13.1048
   -12.9824 -12.9747 -11.3473 -10.3193 -10.2918 -10.0364  -9.9519  -9.9489
    -9.7434  -9.2921  -9.1229  -9.1167  -9.1157  -9.1109  -8.9793  -8.9424
    -8.9235  -8.7683  -8.6594  -8.4067  -8.2450  -7.8493  -7.7472  -7.6254
    -7.6222  -7.0528  -6.7691  -6.7243  -6.2601  -6.2181  -6.1520  -6.1076
    -5.6546  -5.6441  -4.9059  -4.4471  -4.3538  -2.4436  -2.4398  -2.3654
    -2.3604  -0.7510  -0.0369   0.4717   0.4728   0.6827   1.2871   1.3296
     1.3726   1.4601   1.5855   1.9902

          k = 0.0000 0.0722 0.0000 ( 31929 PWs)   bands (ev):

   -21.8553 -21.1246 -19.9298 -19.9216 -19.6916 -19.5261 -19.2197 -19.1974
   -17.8432 -17.8290 -17.6222 -16.8098 -16.8013 -15.9698 -15.9601 -14.6792
   -14.5696 -14.5606 -13.7265 -13.7110 -13.2436 -13.2232 -12.4607 -12.4524
   -12.4024 -12.3835 -11.5843 -11.3381 -10.7764 -10.7525 -10.1593 -10.1574
    -9.9351  -9.7527  -9.2891  -9.1318  -8.8876  -8.6832  -8.6579  -8.6318
    -8.6132  -8.4572  -8.4454  -8.3751  -8.1886  -7.7967  -7.6503  -7.4447
    -7.1063  -6.9794  -6.9101  -6.7642  -6.6757  -6.6677  -6.0091  -5.8468
    -5.4504  -5.4170  -5.3000  -4.4460  -4.4242  -3.3973  -3.3864  -1.4381
    -1.4283  -0.1345   0.1070   0.2766   0.3171   0.6687   0.7102   0.8135
     1.3113   1.8000   1.8494   2.1788

          k = 0.0000-0.1443 0.0000 ( 31940 PWs)   bands (ev):

   -21.5849 -21.5762 -19.6782 -19.6681 -19.6561 -19.6514 -19.5000 -18.7186
   -18.7128 -16.9618 -16.9504 -16.9405 -16.9354 -16.7871 -16.7856 -14.1924
   -14.1891 -14.1812 -14.1735 -13.2535 -13.2236 -13.1842 -13.1762 -11.5953
   -11.5820 -11.5698 -11.5648 -11.3678 -11.3631 -11.3556 -11.3501 -11.3161
    -9.7615  -9.6372  -9.6251  -9.2884  -8.7134  -8.6585  -8.6232  -8.6122
    -8.3265  -8.3154  -8.3086  -8.2965  -7.6366  -7.3735  -7.3578  -7.3336
    -7.0118  -6.9796  -6.9353  -6.7140  -6.6870  -6.3696  -6.3474  -6.3331
    -6.2695  -4.7561  -4.7470  -4.4279  -4.4202  -4.1565  -4.1295  -0.5613
    -0.5485  -0.4877  -0.4719   0.3521   0.4792   0.6069   0.8780   1.1829
     1.2468   1.3849   1.4895   2.0804

          k = 0.0833 0.0000 0.0000 ( 31951 PWs)   bands (ev):

   -21.8247 -20.8528 -20.3733 -20.3701 -19.5492 -19.4190 -19.3998 -18.9491
   -17.5948 -17.5941 -16.8234 -16.8080 -16.6462 -16.3070 -15.8223 -15.5684
   -14.9176 -14.6597 -14.6584 -14.1668 -13.2379 -13.2323 -12.4416 -12.2001
   -11.7468 -11.5254 -11.5249 -11.3131 -10.2139  -9.9771  -9.9768  -9.8990
    -9.7087  -9.4871  -9.2951  -9.1919  -9.1909  -9.0158  -9.0150  -8.8784
    -8.7826  -8.7371  -8.6042  -8.2496  -8.1275  -8.0801  -8.0791  -7.6959
    -7.3073  -7.1167  -6.9142  -6.7533  -6.7084  -6.4685  -6.1287  -5.9046
    -5.3458  -5.2955  -4.7866  -4.4448  -4.3208  -3.6611  -3.4000  -1.4631
    -1.1317  -0.7868  -0.1665  -0.0928   0.1607   0.5946   0.6454   0.8578
     1.5600   1.7484   2.1209   2.2497

          k = 0.0833 0.0722 0.0000 ( 31951 PWs)   bands (ev):

   -21.7331 -21.0037 -20.7622 -20.0437 -19.5882 -19.5085 -18.8618 -18.6309
   -18.1734 -17.5122 -16.9243 -16.8112 -16.7984 -16.6359 -16.2706 -15.1764
   -14.6867 -14.5884 -14.0724 -13.9510 -13.2344 -13.2329 -12.2571 -12.2435
   -12.0253 -11.8115 -11.5486 -11.3053 -10.7620 -10.3768  -9.8002  -9.7613
    -9.7188  -9.7180  -9.3951  -9.2915  -9.1895  -9.0077  -8.8204  -8.8046
    -8.6774  -8.6688  -8.5289  -8.5081  -8.1914  -7.8400  -7.5547  -7.3757
    -7.3602  -7.0051  -6.7867  -6.7384  -6.4663  -6.4041  -6.1719  -6.0796
    -5.7998  -5.2236  -4.8390  -4.4658  -4.3949  -3.9780  -3.7635  -1.1092
    -0.7951  -0.6349  -0.1559   0.2830   0.3814   0.6100   0.7950   0.9868
     1.4570   1.6219   1.6573   1.9221

          k = 0.0833-0.1443 0.0000 ( 31876 PWs)   bands (ev):

   -21.4631 -21.4544 -20.4952 -20.4878 -19.5328 -18.6100 -18.6095 -18.5951
   -18.5900 -17.6987 -17.6919 -16.8127 -16.8102 -16.3440 -16.3353 -15.2896
   -15.2850 -13.2439 -13.2427 -13.1293 -13.1166 -13.1066 -13.1037 -13.0395
   -13.0338 -11.4262 -11.4242 -11.2951 -10.7363 -10.7338  -9.9575  -9.9532
    -9.7255  -9.5077  -9.4824  -9.2937  -9.1250  -9.1193  -9.1186  -9.1068
    -8.7609  -8.7102  -8.3285  -8.2882  -7.6271  -7.6127  -7.3084  -7.2868
    -7.1306  -6.7646  -6.7622  -6.6419  -6.6380  -6.2456  -6.1873  -6.1730
    -6.1410  -5.2275  -5.1739  -4.5907  -4.4464  -4.0926  -4.0055  -0.9829
    -0.9617   0.2469   0.3292   0.4945   0.5692   0.6362   1.0637   1.3007
     1.3142   1.3642   1.3988   1.4026

          k =-0.1667 0.0000 0.0000 ( 31854 PWs)   bands (ev):

   -21.4594 -21.4582 -20.0195 -20.0171 -20.0149 -20.0063 -19.5196 -17.6973
   -17.6934 -16.8525 -16.8331 -16.7464 -16.7225 -16.3476 -16.3359 -15.6746
   -15.6732 -15.2832 -15.2820 -13.2501 -13.2273 -13.0440 -13.0375 -11.4221
   -11.4199 -11.2759 -10.7498 -10.7268 -10.3177 -10.3105 -10.2893 -10.2840
    -9.6730  -9.5019  -9.4914  -9.2989  -8.9762  -8.9747  -8.9587  -8.9412
    -8.9403  -8.9200  -8.7337  -8.7056  -7.9510  -7.7574  -7.7491  -7.7462
    -7.3184  -7.2902  -6.9460  -6.7852  -6.7515  -6.6345  -6.6297  -5.3067
    -5.1234  -4.8970  -4.8833  -4.5742  -4.2509  -4.1813  -3.9698  -1.0015
    -0.9342  -0.7831  -0.7211   0.2467   0.4156   0.5807   0.6092   0.7365
     0.8959   1.3564   1.4039   2.2165

          k =-0.1667 0.0722 0.0000 ( 31908 PWs)   bands (ev):

   -21.3682 -21.3670 -20.6419 -20.6418 -19.5357 -19.2147 -19.2051 -17.6155
   -17.6114 -17.1871 -17.1833 -17.0294 -17.0182 -16.7984 -16.7970 -15.2731
   -15.2719 -14.3374 -14.3359 -13.5991 -13.5948 -13.2393 -13.2238 -11.5451
   -11.5445 -11.2719 -10.8521 -10.8512 -10.6465 -10.6236  -9.7800  -9.7585
    -9.6850  -9.4038  -9.3866  -9.3003  -9.2905  -9.2787  -9.2442  -9.2405
    -8.7830  -8.7613  -8.4673  -8.4438  -7.9393  -7.9275  -7.6782  -7.6554
    -7.2102  -6.9394  -6.8026  -6.7066  -6.6746  -6.6640  -6.6506  -5.2770
    -5.0960  -4.9767  -4.9368  -4.7953  -4.7377  -4.2489  -4.2468  -0.6324
    -0.5752  -0.3561  -0.2845   0.1102   0.2325   0.6597   0.6673   0.6929
     1.0035   1.4840   1.5135   1.7033

          k =-0.1667-0.1443 0.0000 ( 31784 PWs)   bands (ev):

   -21.0994 -21.0979 -21.0905 -21.0901 -19.5310 -18.2651 -18.2586 -18.2554
   -18.2547 -17.3811 -17.3760 -17.3739 -17.3692 -16.8068 -16.8049 -14.4904
   -14.4839 -14.4789 -14.4754 -13.2435 -13.2274 -12.9489 -12.9441 -12.9427
   -12.9398 -11.2643 -10.3337 -10.3290 -10.3140 -10.3031  -9.9674  -9.9620
    -9.9411  -9.9372  -9.6944  -9.2962  -9.1462  -9.1288  -9.0953  -9.0167
    -8.6547  -8.6270  -8.4209  -8.4114  -8.4009  -8.3948  -7.1091  -7.0948
    -7.0866  -7.0783  -7.0739  -6.8297  -6.7337  -5.9122  -5.8087  -5.7509
    -5.7292  -5.2280  -4.9986  -4.9822  -4.9534  -4.3561  -4.2561  -0.3375
    -0.2010  -0.1764  -0.1563   0.4557   0.6365   0.7819   1.0067   1.0477
     1.0543   1.1821   1.2478   1.3729

     the Fermi energy is    -2.4023 ev

!    total energy              =    -351.25392968 Ry
     Harris-Foulkes estimate   =    -351.25392959 Ry
     estimated scf accuracy    <       0.00000006 Ry

     The total energy is the sum of the following terms:

     one-electron contribution =   -4801.92092783 Ry
     hartree contribution      =    2420.84196606 Ry
     xc contribution           =    -112.33082073 Ry
     ewald contribution        =    2142.15861510 Ry
     smearing contrib. (-TS)   =      -0.00276228 Ry

     convergence has been achieved in   6 iterations

     Forces acting on atoms (cartesian axes, Ry/au):

     atom    1 type  1   force =     0.00127162   -0.00063959    0.00013334
     atom    2 type  1   force =    -0.00071638    0.00117177    0.00018589
     atom    3 type  1   force =    -0.00310278   -0.00207511   -0.00252097
     atom    4 type  1   force =     0.00076346    0.00104787   -0.00895220
     atom    5 type  1   force =     0.00076346   -0.00104787   -0.00895220
     atom    6 type  1   force =    -0.00310278    0.00207511   -0.00252097
     atom    7 type  1   force =    -0.00071638   -0.00117177    0.00018589
     atom    8 type  1   force =     0.00127162    0.00063959    0.00013334
     atom    9 type  1   force =    -0.00127162   -0.00063959    0.00013334
     atom   10 type  1   force =     0.00000000   -0.00322878   -0.00315467
     atom   11 type  1   force =     0.00000000    0.00073439   -0.00906745
     atom   12 type  1   force =    -0.00076346    0.00104787   -0.00895220
     atom   13 type  1   force =    -0.00076346   -0.00104787   -0.00895220
     atom   14 type  1   force =     0.00000000   -0.00073439   -0.00906745
     atom   15 type  1   force =     0.00000000    0.00322878   -0.00315467
     atom   16 type  1   force =    -0.00127162    0.00063959    0.00013334
     atom   17 type  1   force =     0.00000000    0.00077995    0.00205714
     atom   18 type  1   force =     0.00071638    0.00117177    0.00018589
     atom   19 type  1   force =     0.00310278   -0.00207511   -0.00252097
     atom   20 type  1   force =     0.00000000   -0.00031138   -0.00125799
     atom   21 type  1   force =     0.00000000    0.00031138   -0.00125799
     atom   22 type  1   force =     0.00310278    0.00207511   -0.00252097
     atom   23 type  1   force =     0.00071638   -0.00117177    0.00018589
     atom   24 type  1   force =     0.00000000   -0.00077995    0.00205714
     atom   25 type  1   force =     0.00000000    0.00663563    0.00932943
     atom   26 type  1   force =     0.00514587    0.00273566    0.00933991
     atom   27 type  1   force =     0.00514587   -0.00273566    0.00933991
     atom   28 type  1   force =     0.00000000   -0.00663563    0.00932943
     atom   29 type  1   force =    -0.00514587   -0.00273566    0.00933991
     atom   30 type  1   force =    -0.00514587    0.00273566    0.00933991
     atom   31 type  2   force =     0.00000000   -0.00378640    0.00187455
     atom   32 type  2   force =    -0.00272955   -0.00160289    0.00192352
     atom   33 type  2   force =    -0.00272955    0.00160289    0.00192352
     atom   34 type  2   force =     0.00000000    0.00378640    0.00187455
     atom   35 type  2   force =     0.00272955    0.00160289    0.00192352
     atom   36 type  2   force =     0.00272955   -0.00160289    0.00192352

     Total force =     0.038485     Total SCF correction =     0.000252

     number of scf cycles    =   4
     number of bfgs steps    =   3

     energy   old            =    -351.2510998041 Ry
     energy   new            =    -351.2539296807 Ry

     CASE: energy  _new < energy  _old

     new trust radius        =       0.0347267650 bohr
     new conv_thr            =       0.0000009340 Ry


ATOMIC_POSITIONS (angstrom)
C        1.230473641   0.001003601   0.002484176
C        0.001638508   0.710843859   0.002526741
C        0.003296616   2.133159996  -0.010522846
C        1.230419860   2.840832050  -0.043668251
C        1.230419860   4.260576261  -0.043668251
C        0.003296616   4.968248315  -0.010522846
C        0.001638508   6.390564452   0.002526741
C        1.230473641   7.100404710   0.002484176
C        3.689526359   0.001003601   0.002484176
C        2.460000000   0.714349647  -0.011736733
C        2.460000000   2.131181354  -0.044295568
C        3.689580140   2.840832050  -0.043668251
C        3.689580140   4.260576261  -0.043668251
C        2.460000000   4.970226957  -0.044295568
C        2.460000000   6.387058664  -0.011736733
C        3.689526359   7.100404710   0.002484176
C        6.150000000   0.000597565   0.004128127
C        4.918361492   0.710843859   0.002526741
C        4.916703384   2.133159996  -0.010522846
C        6.150000000   2.841122719   0.001428836
C        6.150000000   4.260285592   0.001428836
C        4.916703384   4.968248315  -0.010522846
C        4.918361492   6.390564452   0.002526741
C        6.150000000   7.100810746   0.004128127
C        2.460000000   2.155435051   3.045728157
C        1.252844018   2.853294827   3.045751707
C        1.252844018   4.248113484   3.045751707
C        2.460000000   4.945973260   3.045728157
C        3.667155982   4.248113484   3.045751707
C        3.667155982   2.853294827   3.045751707
H        2.460000000   1.072476642   3.003756101
H        0.314784439   2.311754729   3.003924014
H        0.314784439   4.789653582   3.003924014
H        2.460000000   6.028931669   3.003756101
H        4.605215561   4.789653582   3.003924014
H        4.605215561   2.311754729   3.003924014



     Writing output data file batch_graph+benzene.save/
     NEW-OLD atomic charge density approx. for the potential

     negative rho (up, down):  2.164E-04 0.000E+00

     total cpu time spent up to now is      821.8 secs

     Self-consistent Calculation

     iteration #  1     ecut=    32.00 Ry     beta= 0.50
     Davidson diagonalization with overlap
     ethr =  1.00E-06,  avg # of iterations =  4.1

     negative rho (up, down):  2.151E-04 0.000E+00

     total cpu time spent up to now is      873.7 secs

     total energy              =    -351.25697539 Ry
     Harris-Foulkes estimate   =    -351.25813701 Ry
     estimated scf accuracy    <       0.00263928 Ry

     iteration #  2     ecut=    32.00 Ry     beta= 0.50
     Davidson diagonalization with overlap
     ethr =  2.09E-06,  avg # of iterations =  3.2

     negative rho (up, down):  2.167E-04 0.000E+00

     total cpu time spent up to now is      901.9 secs

     total energy              =    -351.25741288 Ry
     Harris-Foulkes estimate   =    -351.25748991 Ry
     estimated scf accuracy    <       0.00032071 Ry

     iteration #  3     ecut=    32.00 Ry     beta= 0.50
     Davidson diagonalization with overlap
     ethr =  2.55E-07,  avg # of iterations =  2.0

     negative rho (up, down):  2.167E-04 0.000E+00

     total cpu time spent up to now is      928.7 secs

     total energy              =    -351.25746065 Ry
     Harris-Foulkes estimate   =    -351.25747071 Ry
     estimated scf accuracy    <       0.00007297 Ry

     iteration #  4     ecut=    32.00 Ry     beta= 0.50
     Davidson diagonalization with overlap
     ethr =  5.79E-08,  avg # of iterations =  2.0

     negative rho (up, down):  2.200E-04 0.000E+00

     total cpu time spent up to now is      955.2 secs

     total energy              =    -351.25747134 Ry
     Harris-Foulkes estimate   =    -351.25747473 Ry
     estimated scf accuracy    <       0.00001748 Ry

     iteration #  5     ecut=    32.00 Ry     beta= 0.50
     Davidson diagonalization with overlap
     ethr =  1.39E-08,  avg # of iterations =  2.1

     negative rho (up, down):  2.170E-04 0.000E+00

     total cpu time spent up to now is      981.1 secs

     total energy              =    -351.25747487 Ry
     Harris-Foulkes estimate   =    -351.25747548 Ry
     estimated scf accuracy    <       0.00000292 Ry

     iteration #  6     ecut=    32.00 Ry     beta= 0.50
     Davidson diagonalization with overlap
     ethr =  2.32E-09,  avg # of iterations =  2.1

     negative rho (up, down):  2.144E-04 0.000E+00

     total cpu time spent up to now is     1006.6 secs

     End of self-consistent calculation

          k = 0.0000 0.0000 0.0000 ( 31971 PWs)   bands (ev):

   -21.9534 -20.4982 -20.4971 -20.0244 -20.0169 -19.5447 -18.6165 -18.6127
   -18.6022 -18.5999 -16.8446 -16.8065 -16.7447 -15.6766 -15.1139 -15.1097
   -15.0905 -15.0886 -13.2544 -13.2317 -13.1315 -13.1269 -13.1163 -13.1150
   -12.9883 -12.9821 -11.3522 -10.3240 -10.3013 -10.0406  -9.9599  -9.9541
    -9.7326  -9.3001  -9.1284  -9.1251  -9.1233  -9.1199  -8.9860  -8.9489
    -8.9334  -8.7710  -8.6605  -8.4016  -8.2473  -7.8508  -7.7513  -7.6329
    -7.6261  -7.0821  -6.7657  -6.7230  -6.2564  -6.2197  -6.1578  -6.1236
    -5.6606  -5.6524  -4.9016  -4.4647  -4.3811  -2.4444  -2.4417  -2.3785
    -2.3740  -0.7524  -0.0352   0.4732   0.4820   0.6771   1.2817   1.3209
     1.3591   1.4388   1.5842   1.9938

          k = 0.0000 0.0722 0.0000 ( 31929 PWs)   bands (ev):

   -21.8616 -21.1310 -19.9349 -19.9284 -19.6975 -19.5417 -19.2249 -19.2067
   -17.8485 -17.8368 -17.6287 -16.8172 -16.8066 -15.9762 -15.9681 -14.6864
   -14.5757 -14.5684 -13.7319 -13.7192 -13.2439 -13.2258 -12.4668 -12.4600
   -12.4078 -12.3923 -11.5920 -11.3432 -10.7815 -10.7618 -10.1664 -10.1650
    -9.9370  -9.7413  -9.2976  -9.1335  -8.8946  -8.6833  -8.6586  -8.6380
    -8.6230  -8.4637  -8.4543  -8.3834  -8.1963  -7.7919  -7.6514  -7.4494
    -7.1204  -6.9863  -6.9116  -6.7656  -6.6987  -6.6657  -6.0174  -5.8545
    -5.4452  -5.4151  -5.3076  -4.4631  -4.4470  -3.4071  -3.3980  -1.4431
    -1.4344  -0.1305   0.1088   0.2847   0.3195   0.6484   0.6947   0.8079
     1.3147   1.7965   1.8458   2.1740

          k = 0.0000-0.1443 0.0000 ( 31940 PWs)   bands (ev):

   -21.5899 -21.5839 -19.6833 -19.6708 -19.6637 -19.6584 -19.5183 -18.7261
   -18.7190 -16.9646 -16.9535 -16.9467 -16.9445 -16.7981 -16.7936 -14.1969
   -14.1958 -14.1877 -14.1832 -13.2528 -13.2262 -13.1903 -13.1858 -11.5995
   -11.5883 -11.5790 -11.5735 -11.3741 -11.3685 -11.3632 -11.3563 -11.3245
    -9.7502  -9.6358  -9.6297  -9.2970  -8.7139  -8.6585  -8.6273  -8.6232
    -8.3323  -8.3220  -8.3175  -8.3067  -7.6307  -7.3727  -7.3615  -7.3392
    -7.0201  -6.9885  -6.9616  -6.7169  -6.6848  -6.3682  -6.3529  -6.3420
    -6.2820  -4.7499  -4.7378  -4.4332  -4.4289  -4.1859  -4.1618  -0.5594
    -0.5472  -0.4926  -0.4806   0.3531   0.4793   0.6002   0.8783   1.1771
     1.2467   1.3787   1.4722   2.0754

          k = 0.0833 0.0000 0.0000 ( 31951 PWs)   bands (ev):

   -21.8310 -20.8590 -20.3787 -20.3773 -19.5609 -19.4262 -19.4095 -18.9560
   -17.6013 -17.6006 -16.8283 -16.8134 -16.6553 -16.3144 -15.8294 -15.5756
   -14.9250 -14.6669 -14.6647 -14.1736 -13.2379 -13.2349 -12.4486 -12.2068
   -11.7538 -11.5332 -11.5317 -11.3184 -10.2217  -9.9859  -9.9853  -9.8989
    -9.6977  -9.4940  -9.3033  -9.1997  -9.1983  -9.0237  -9.0224  -8.8797
    -8.7894  -8.7403  -8.6026  -8.2479  -8.1301  -8.0876  -8.0859  -7.7044
    -7.3125  -7.1202  -6.9287  -6.7610  -6.7068  -6.4780  -6.1362  -5.9129
    -5.3421  -5.2954  -4.7837  -4.4630  -4.3466  -3.6742  -3.4108  -1.4687
    -1.1362  -0.7890  -0.1617  -0.0950   0.1623   0.5839   0.6328   0.8525
     1.5619   1.7484   2.1131   2.2517

          k = 0.0833 0.0722 0.0000 ( 31951 PWs)   bands (ev):

   -21.7394 -21.0100 -20.7685 -20.0498 -19.5946 -19.5241 -18.8686 -18.6376
   -18.1800 -17.5186 -16.9285 -16.8180 -16.8057 -16.6442 -16.2781 -15.1831
   -14.6934 -14.5956 -14.0797 -13.9578 -13.2355 -13.2343 -12.2642 -12.2509
   -12.0320 -11.8186 -11.5562 -11.3106 -10.7695 -10.3840  -9.8035  -9.7670
    -9.7263  -9.7068  -9.4019  -9.3003  -9.1972  -9.0095  -8.8206  -8.8123
    -8.6840  -8.6699  -8.5310  -8.5150  -8.1990  -7.8405  -7.5628  -7.3830
    -7.3621  -7.0312  -6.7837  -6.7381  -6.4757  -6.4090  -6.1764  -6.0870
    -5.8027  -5.2217  -4.8340  -4.4822  -4.4130  -3.9977  -3.7786  -1.1131
    -0.7980  -0.6374  -0.1550   0.2849   0.3883   0.5998   0.7773   0.9812
     1.4606   1.6224   1.6479   1.9119

          k = 0.0833-0.1443 0.0000 ( 31876 PWs)   bands (ev):

   -21.4680 -21.4621 -20.5001 -20.4954 -19.5479 -18.6165 -18.6136 -18.6026
   -18.5988 -17.7057 -17.6979 -16.8176 -16.8173 -16.3502 -16.3447 -15.2970
   -15.2907 -13.2436 -13.2422 -13.1346 -13.1233 -13.1174 -13.1115 -13.0455
   -13.0441 -11.4322 -11.4310 -11.3010 -10.7424 -10.7423  -9.9648  -9.9606
    -9.7145  -9.5058  -9.4873  -9.3019  -9.1290  -9.1287  -9.1255  -9.1161
    -8.7612  -8.7113  -8.3261  -8.2923  -7.6348  -7.6207  -7.3170  -7.2946
    -7.1549  -6.7621  -6.7583  -6.6489  -6.6474  -6.2411  -6.1895  -6.1794
    -6.1531  -5.2246  -5.1775  -4.5935  -4.4634  -4.1107  -4.0319  -0.9830
    -0.9672   0.2620   0.3337   0.4945   0.5616   0.6224   1.0637   1.2943
     1.3078   1.3576   1.3871   1.3919

          k =-0.1667 0.0000 0.0000 ( 31854 PWs)   bands (ev):

   -21.4657 -21.4645 -20.0238 -20.0232 -20.0206 -20.0145 -19.5366 -17.7032
   -17.7006 -16.8533 -16.8367 -16.7564 -16.7338 -16.3541 -16.3444 -15.6815
   -15.6793 -15.2903 -15.2893 -13.2512 -13.2274 -13.0510 -13.0457 -11.4291
   -11.4269 -11.2818 -10.7571 -10.7333 -10.3247 -10.3143 -10.3002 -10.2935
    -9.6620  -9.5000  -9.4966  -9.3072  -8.9827  -8.9826  -8.9643  -8.9500
    -8.9465  -8.9287  -8.7332  -8.7079  -7.9430  -7.7650  -7.7520  -7.7464
    -7.3263  -7.2962  -6.9844  -6.7831  -6.7494  -6.6411  -6.6399  -5.2952
    -5.1307  -4.8960  -4.8762  -4.5811  -4.2867  -4.1874  -3.9984  -1.0010
    -0.9417  -0.7810  -0.7259   0.2563   0.4087   0.5821   0.6009   0.7092
     0.8967   1.3508   1.4000   2.2154

          k =-0.1667 0.0722 0.0000 ( 31908 PWs)   bands (ev):

   -21.3744 -21.3733 -20.6481 -20.6481 -19.5500 -19.2210 -19.2133 -17.6213
   -17.6185 -17.1930 -17.1896 -17.0333 -17.0252 -16.8074 -16.8053 -15.2800
   -15.2784 -14.3441 -14.3436 -13.6053 -13.6017 -13.2425 -13.2239 -11.5541
   -11.5509 -11.2771 -10.8591 -10.8590 -10.6539 -10.6301  -9.7876  -9.7650
    -9.6737  -9.4011  -9.3934  -9.3081  -9.2995  -9.2841  -9.2521  -9.2485
    -8.7840  -8.7618  -8.4650  -8.4481  -7.9477  -7.9340  -7.6871  -7.6617
    -7.2227  -6.9413  -6.8108  -6.7117  -6.6851  -6.6663  -6.6592  -5.2637
    -5.0987  -4.9697  -4.9375  -4.8024  -4.7438  -4.2853  -4.2812  -0.6289
    -0.5775  -0.3546  -0.2915   0.1160   0.2265   0.6559   0.6574   0.6715
     1.0049   1.4771   1.5094   1.7095

          k =-0.1667-0.1443 0.0000 ( 31784 PWs)   bands (ev):

   -21.1040 -21.1032 -21.0991 -21.0968 -19.5462 -18.2717 -18.2664 -18.2617
[...]
     atom   26 type  1   force =    -0.00001942   -0.00000232    0.00000590
     atom   27 type  1   force =    -0.00001942    0.00000232    0.00000590
     atom   28 type  1   force =     0.00000000   -0.00000522   -0.00001614
     atom   29 type  1   force =     0.00001942    0.00000232    0.00000590
     atom   30 type  1   force =     0.00001942   -0.00000232    0.00000590
     atom   31 type  2   force =     0.00000000    0.00003785   -0.00001262
     atom   32 type  2   force =     0.00000226    0.00000873    0.00000859
     atom   33 type  2   force =     0.00000226   -0.00000873    0.00000859
     atom   34 type  2   force =     0.00000000   -0.00003785   -0.00001262
     atom   35 type  2   force =    -0.00000226   -0.00000873    0.00000859
     atom   36 type  2   force =    -0.00000226    0.00000873    0.00000859

     Total force =     0.000308     Total SCF correction =     0.000130
     SCF correction compared to forces is large: reduce conv_thr to get better values

     number of scf cycles    =  37
     number of bfgs steps    =  36

     energy   old            =    -351.2817962731 Ry
     energy   new            =    -351.2817968209 Ry

     CASE: energy  _new < energy  _old

     new trust radius        =       0.0002664365 bohr
     new conv_thr            =       0.0000000100 Ry


ATOMIC_POSITIONS (angstrom)
C        1.230272142   0.000374914  -0.178910419
C        0.000342378   0.710512578  -0.176394611
C        0.000749218   2.131175274  -0.193515968
C        1.230395123   2.840711111  -0.216072065
C        1.230395123   4.260697200  -0.216072065
C        0.000749218   4.970233037  -0.193515968
C        0.000342378   6.390895733  -0.176394611
C        1.230272142   7.101033398  -0.178910419
C        3.689727858   0.000374914  -0.178910419
C        2.460000000   0.711101362  -0.191911803
C        2.460000000   2.130989352  -0.215092212
C        3.689604877   2.840711111  -0.216072065
C        3.689604877   4.260697200  -0.216072065
C        2.460000000   4.970418959  -0.215092212
C        2.460000000   6.390306949  -0.191911803
C        3.689727858   7.101033398  -0.178910419
C        6.150000000   0.000337839  -0.167540880
C        4.919657622   0.710512578  -0.176394611
C        4.919250782   2.131175274  -0.193515968
C        6.150000000   2.840563253  -0.191372998
C        6.150000000   4.260845058  -0.191372998
C        4.919250782   4.970233037  -0.193515968
C        4.919657622   6.390895733  -0.176394611
C        6.150000000   7.101070472  -0.167540880
C        2.460000000   2.154881885   3.387047899
C        1.252166348   2.853017651   3.386971707
C        1.252166348   4.248390660   3.386971707
C        2.460000000   4.946526426   3.387047899
C        3.667833652   4.248390660   3.386971707
C        3.667833652   2.853017651   3.386971707
H        2.460000000   1.068090430   3.378365688
H        0.310934020   2.309677110   3.378173510
H        0.310934020   4.791731201   3.378173510
H        2.460000000   6.033317881   3.378365688
H        4.609065980   4.791731201   3.378173510
H        4.609065980   2.309677110   3.378173510



     Writing output data file batch_graph+benzene.save/
     NEW-OLD atomic charge density approx. for the potential

     negative rho (up, down):  1.941E-04 0.000E+00

     total cpu time spent up to now is     7453.0 secs

     Self-consistent Calculation

     iteration #  1     ecut=    32.00 Ry     beta= 0.50
     Davidson diagonalization with overlap
     ethr =  1.00E-06,  avg # of iterations =  2.0

     Threshold (ethr) on eigenvalues was too large:
     Diagonalizing with lowered threshold

     Davidson diagonalization with overlap
     ethr =  4.37E-11,  avg # of iterations =  3.8

     negative rho (up, down):  1.941E-04 0.000E+00

     total cpu time spent up to now is     7509.1 secs

     total energy              =    -351.28179688 Ry
     Harris-Foulkes estimate   =    -351.28179694 Ry
     estimated scf accuracy    <       0.00000012 Ry

     iteration #  2     ecut=    32.00 Ry     beta= 0.50
     Davidson diagonalization with overlap
     ethr =  9.59E-11,  avg # of iterations =  2.7

     negative rho (up, down):  1.941E-04 0.000E+00

     total cpu time spent up to now is     7537.2 secs

     total energy              =    -351.28179691 Ry
     Harris-Foulkes estimate   =    -351.28179692 Ry
     estimated scf accuracy    <       0.00000006 Ry

     iteration #  3     ecut=    32.00 Ry     beta= 0.50
     Davidson diagonalization with overlap
     ethr =  5.15E-11,  avg # of iterations =  2.7

     negative rho (up, down):  1.941E-04 0.000E+00

     total cpu time spent up to now is     7563.0 secs

     End of self-consistent calculation

          k = 0.0000 0.0000 0.0000 ( 31971 PWs)   bands (ev):

   -21.8615 -20.4056 -20.4055 -19.9277 -19.9276 -19.5680 -18.5205 -18.5192
   -18.5163 -18.5161 -16.8328 -16.8229 -16.6808 -15.5893 -15.0138 -15.0124
   -15.0120 -15.0107 -13.2586 -13.2361 -13.0380 -13.0373 -13.0366 -13.0365
   -12.8975 -12.8972 -11.3330 -10.2249 -10.2229  -9.9433  -9.8731  -9.8689
    -9.7242  -9.3284  -9.0430  -9.0418  -9.0348  -9.0347  -8.8980  -8.8585
    -8.8571  -8.7312  -8.6565  -8.2321  -8.1982  -7.6918  -7.6469  -7.5454
    -7.5444  -7.2771  -6.8118  -6.7161  -6.1004  -6.0939  -6.0876  -6.0813
    -5.5752  -5.5703  -4.7513  -4.6053  -4.5541  -2.3176  -2.3156  -2.3087
    -2.3064  -0.6186  -0.1386   0.3780   0.4660   0.6696   1.4089   1.4179
     1.4246   1.4538   1.4667   1.8767

          k = 0.0000 0.0722 0.0000 ( 31929 PWs)   bands (ev):

   -21.7697 -21.0390 -19.8383 -19.8382 -19.6027 -19.5652 -19.1285 -19.1274
   -17.7525 -17.7519 -17.5378 -16.8325 -16.8229 -15.8846 -15.8841 -14.5990
   -14.4835 -14.4832 -13.6368 -13.6359 -13.2552 -13.2360 -12.3761 -12.3761
   -12.3125 -12.3114 -11.5057 -11.3270 -10.6844 -10.6827 -10.0796 -10.0794
    -9.8311  -9.7314  -9.3280  -8.9775  -8.8073  -8.7251  -8.6558  -8.5475
    -8.5462  -8.3753  -8.3739  -8.2985  -8.1092  -7.6084  -7.5467  -7.3573
    -7.2104  -6.8993  -6.7921  -6.7769  -6.7356  -6.6961  -5.9349  -5.7662
    -5.2842  -5.2826  -5.2112  -4.6077  -4.6021  -3.3263  -3.3250  -1.3305
    -1.3293  -0.0024   0.0328   0.3889   0.4034   0.5471   0.5945   0.7996
     1.2075   1.6773   1.8286   2.2155

          k = 0.0000-0.1443 0.0000 ( 31940 PWs)   bands (ev):

   -21.5019 -21.4881 -19.5863 -19.5782 -19.5761 -19.5631 -19.5461 -18.6362
   -18.6299 -16.8615 -16.8600 -16.8576 -16.8529 -16.8247 -16.8186 -14.1073
   -14.1053 -14.0979 -14.0976 -13.2525 -13.2362 -13.1070 -13.1067 -11.5017
   -11.4989 -11.4934 -11.4933 -11.3218 -11.2797 -11.2764 -11.2757 -11.2734
    -9.7388  -9.5135  -9.5000  -9.3276  -8.7522  -8.6553  -8.5445  -8.5344
    -8.2381  -8.2381  -8.2334  -8.2306  -7.4552  -7.2574  -7.2529  -7.2426
    -7.1195  -6.9282  -6.9108  -6.7693  -6.7105  -6.2664  -6.2545  -6.2321
    -6.2253  -4.6756  -4.6554  -4.3364  -4.3335  -4.2909  -4.2813  -0.4043
    -0.4003  -0.3937  -0.3882   0.2493   0.4055   0.4852   0.7876   1.1737
     1.2201   1.4857   1.5139   1.9795

          k = 0.0833 0.0000 0.0000 ( 31951 PWs)   bands (ev):

   -21.7391 -20.7671 -20.2858 -20.2857 -19.5680 -19.3350 -19.3338 -18.8668
   -17.5101 -17.5098 -16.8314 -16.8295 -16.5765 -16.2273 -15.7408 -15.4883
   -14.8379 -14.5772 -14.5766 -14.0842 -13.2480 -13.2453 -12.3618 -12.1185
   -11.6654 -11.4449 -11.4444 -11.3037 -10.1360  -9.9005  -9.8986  -9.7921
    -9.6908  -9.4063  -9.3320  -9.1136  -9.1134  -8.9380  -8.9379  -8.7532
    -8.7148  -8.7004  -8.6098  -8.0921  -8.0607  -8.0000  -7.9996  -7.6201
    -7.3321  -6.9839  -6.9436  -6.7971  -6.7607  -6.4266  -6.0483  -5.8304
    -5.1856  -5.1719  -4.6779  -4.6090  -4.4733  -3.6101  -3.3350  -1.3593
    -1.0242  -0.6594   0.0049   0.0284   0.0598   0.4378   0.4842   0.8435
     1.4480   1.6281   2.1138   2.2351

          k = 0.0833 0.0722 0.0000 ( 31951 PWs)   bands (ev):

   -21.6475 -20.9180 -20.6765 -19.9569 -19.5682 -19.4808 -18.7792 -18.5479
   -18.0898 -17.4276 -16.8396 -16.8309 -16.8166 -16.5615 -16.1912 -15.0940
   -14.6043 -14.5081 -13.9919 -13.8688 -13.2455 -13.2449 -12.1761 -12.1639
   -11.9436 -11.7319 -11.4697 -11.2981 -10.6818 -10.2971  -9.6985  -9.6912
    -9.6764  -9.6426  -9.3319  -9.3135  -9.1090  -8.8485  -8.7351  -8.7271
    -8.7007  -8.5948  -8.5175  -8.4326  -8.1143  -7.7083  -7.4783  -7.3296
    -7.2939  -7.1149  -6.7784  -6.7720  -6.3883  -6.3406  -6.0800  -6.0030
    -5.6891  -5.0767  -4.7063  -4.6117  -4.5186  -3.9727  -3.7256  -0.9978
    -0.6776  -0.5093  -0.0126   0.1876   0.4123   0.4605   0.7483   0.9715
     1.3551   1.5209   1.7316   1.8879

          k = 0.0833-0.1443 0.0000 ( 31876 PWs)   bands (ev):

   -21.3801 -21.3663 -20.4123 -20.3988 -19.5671 -18.5250 -18.5217 -18.5148
   -18.5109 -17.6143 -17.6082 -16.8325 -16.8297 -16.2647 -16.2587 -15.2051
   -15.2041 -13.2460 -13.2423 -13.0414 -13.0363 -13.0362 -13.0334 -12.9629
   -12.9586 -11.3465 -11.3395 -11.2918 -10.6578 -10.6547  -9.8772  -9.8716
    -9.7061  -9.3684  -9.3580  -9.3311  -9.0448  -9.0403  -9.0359  -9.0339
    -8.7388  -8.7279  -8.2157  -8.2136  -7.5465  -7.5398  -7.3086  -7.2259
    -7.2154  -6.7754  -6.7567  -6.5646  -6.5589  -6.0991  -6.0928  -6.0907
    -6.0819  -5.0752  -5.0643  -4.6320  -4.6029  -4.0762  -4.0550  -0.8535
    -0.8513   0.3879   0.3984   0.4077   0.5218   0.5613   0.9786   1.3475
     1.3856   1.4102   1.4152   1.4402

          k =-0.1667 0.0000 0.0000 ( 31854 PWs)   bands (ev):

   -21.3779 -21.3685 -19.9322 -19.9318 -19.9233 -19.9232 -19.5650 -17.6115
   -17.6111 -16.8375 -16.8309 -16.6804 -16.6790 -16.2671 -16.2585 -15.5913
   -15.5908 -15.2073 -15.1979 -13.2550 -13.2377 -12.9626 -12.9626 -11.3413
   -11.3410 -11.2727 -10.6633 -10.6516 -10.2238 -10.2220 -10.2219 -10.2196
    -9.6569  -9.3686  -9.3581  -9.3361  -8.8973  -8.8969  -8.8642  -8.8629
    -8.8586  -8.8565  -8.7819  -8.6964  -7.7238  -7.6568  -7.6535  -7.6410
    -7.2382  -7.2296  -7.2173  -6.8311  -6.7777  -6.5617  -6.5544  -5.0910
    -5.0482  -4.7651  -4.7322  -4.5974  -4.5208  -4.0884  -4.0481  -0.8501
    -0.8495  -0.6275  -0.6140   0.3712   0.4687   0.4835   0.5091   0.5634
     0.7844   1.3454   1.3763   2.1230

          k =-0.1667 0.0722 0.0000 ( 31908 PWs)   bands (ev):

   -21.2866 -21.2773 -20.5606 -20.5514 -19.5663 -19.1341 -19.1245 -17.5294
   -17.5289 -17.1031 -17.0949 -16.9346 -16.9331 -16.8336 -16.8296 -15.1904
   -15.1899 -14.2606 -14.2519 -13.5140 -13.5135 -13.2546 -13.2346 -11.4695
   -11.4631 -11.2677 -10.7732 -10.7730 -10.5600 -10.5483  -9.6932  -9.6832
    -9.6655  -9.3359  -9.2627  -9.2521  -9.2072  -9.2030  -9.1664  -9.1664
    -8.7843  -8.7199  -8.3860  -8.3841  -7.8554  -7.8543  -7.5915  -7.5825
    -7.3155  -6.8564  -6.7753  -6.7205  -6.6969  -6.5950  -6.5918  -5.0474
    -5.0025  -4.8092  -4.7919  -4.7093  -4.6494  -4.5296  -4.4944  -0.4704
    -0.4560  -0.2011  -0.1950   0.2705   0.3299   0.4730   0.5118   0.5645
     0.8941   1.4682   1.4913   1.6014

          k =-0.1667-0.1443 0.0000 ( 31784 PWs)   bands (ev):

   -21.0186 -21.0127 -21.0084 -20.9956 -19.5659 -18.1824 -18.1768 -18.1740
   -18.1671 -17.2992 -17.2935 -17.2860 -17.2811 -16.8351 -16.8314 -14.4068
   -14.4008 -14.3987 -14.3934 -13.2550 -13.2318 -12.8709 -12.8703 -12.8629
   -12.8619 -11.2620 -10.2486 -10.2407 -10.2399 -10.2267  -9.8833  -9.8793
    -9.8675  -9.8638  -9.6738  -9.3355  -8.9639  -8.9497  -8.9329  -8.9305
    -8.7449  -8.6997  -8.3320  -8.3303  -8.3275  -8.3224  -7.3061  -7.0095
    -7.0094  -7.0061  -7.0028  -6.8398  -6.7370  -5.7022  -5.6994  -5.6828
    -5.6762  -4.9628  -4.8943  -4.8939  -4.8756  -4.5919  -4.5455  -0.1022
    -0.0808  -0.0754  -0.0639   0.4299   0.4962   0.6768   1.0239   1.1309
     1.1388   1.1540   1.1856   1.2744

     the Fermi energy is    -2.3121 ev

!    total energy              =    -351.28179691 Ry
     Harris-Foulkes estimate   =    -351.28179692 Ry
     estimated scf accuracy    <          7.9E-09 Ry

     The total energy is the sum of the following terms:

     one-electron contribution =   -4558.63800871 Ry
     hartree contribution      =    2299.39502513 Ry
     xc contribution           =    -112.23203138 Ry
     ewald contribution        =    2020.19603820 Ry
     smearing contrib. (-TS)   =      -0.00282014 Ry

     convergence has been achieved in   3 iterations

     Forces acting on atoms (cartesian axes, Ry/au):

     atom    1 type  1   force =     0.00002367   -0.00000194    0.00001400
     atom    2 type  1   force =     0.00001021   -0.00003106   -0.00000569
     atom    3 type  1   force =     0.00000018   -0.00001566    0.00000259
     atom    4 type  1   force =    -0.00002372   -0.00000036    0.00001058
     atom    5 type  1   force =    -0.00002372    0.00000036    0.00001058
     atom    6 type  1   force =     0.00000018    0.00001566    0.00000259
     atom    7 type  1   force =     0.00001021    0.00003106   -0.00000569
     atom    8 type  1   force =     0.00002367    0.00000194    0.00001400
     atom    9 type  1   force =    -0.00002367   -0.00000194    0.00001400
     atom   10 type  1   force =     0.00000000    0.00000406   -0.00003002
     atom   11 type  1   force =     0.00000000    0.00003597   -0.00000152
     atom   12 type  1   force =     0.00002372   -0.00000036    0.00001058
     atom   13 type  1   force =     0.00002372    0.00000036    0.00001058
     atom   14 type  1   force =     0.00000000   -0.00003597   -0.00000152
     atom   15 type  1   force =     0.00000000   -0.00000406   -0.00003002
     atom   16 type  1   force =    -0.00002367    0.00000194    0.00001400
     atom   17 type  1   force =     0.00000000   -0.00001615   -0.00000085
     atom   18 type  1   force =    -0.00001021   -0.00003106   -0.00000569
     atom   19 type  1   force =    -0.00000018   -0.00001566    0.00000259
     atom   20 type  1   force =     0.00000000   -0.00000049   -0.00001106
     atom   21 type  1   force =     0.00000000    0.00000049   -0.00001106
     atom   22 type  1   force =    -0.00000018    0.00001566    0.00000259
     atom   23 type  1   force =    -0.00001021    0.00003106   -0.00000569
     atom   24 type  1   force =     0.00000000    0.00001615   -0.00000085
     atom   25 type  1   force =     0.00000000    0.00000400   -0.00001048
     atom   26 type  1   force =    -0.00000541   -0.00000312    0.00000305
     atom   27 type  1   force =    -0.00000541    0.00000312    0.00000305
     atom   28 type  1   force =     0.00000000   -0.00000400   -0.00001048
     atom   29 type  1   force =     0.00000541    0.00000312    0.00000305
     atom   30 type  1   force =     0.00000541   -0.00000312    0.00000305
     atom   31 type  2   force =     0.00000000    0.00000973   -0.00001407
     atom   32 type  2   force =    -0.00000354   -0.00000018    0.00000947
     atom   33 type  2   force =    -0.00000354    0.00000018    0.00000947
     atom   34 type  2   force =     0.00000000   -0.00000973   -0.00001407
     atom   35 type  2   force =     0.00000354    0.00000018    0.00000947
     atom   36 type  2   force =     0.00000354   -0.00000018    0.00000947

     Total force =     0.000133     Total SCF correction =     0.000192
     SCF correction compared to forces is large: reduce conv_thr to get better values

     bfgs converged in  38 scf cycles and  37 bfgs steps
     (criteria: energy <  1.0E-05 Ry, force <  1.0E-04 Ry/Bohr)

     End of BFGS Geometry Optimization

     Final energy   =    -351.2817969136 Ry
Begin final coordinates

ATOMIC_POSITIONS (angstrom)
C        1.230272142   0.000374914  -0.178910419
C        0.000342378   0.710512578  -0.176394611
C        0.000749218   2.131175274  -0.193515968
C        1.230395123   2.840711111  -0.216072065
C        1.230395123   4.260697200  -0.216072065
C        0.000749218   4.970233037  -0.193515968
C        0.000342378   6.390895733  -0.176394611
C        1.230272142   7.101033398  -0.178910419
C        3.689727858   0.000374914  -0.178910419
C        2.460000000   0.711101362  -0.191911803
C        2.460000000   2.130989352  -0.215092212
C        3.689604877   2.840711111  -0.216072065
C        3.689604877   4.260697200  -0.216072065
C        2.460000000   4.970418959  -0.215092212
C        2.460000000   6.390306949  -0.191911803
C        3.689727858   7.101033398  -0.178910419
C        6.150000000   0.000337839  -0.167540880
C        4.919657622   0.710512578  -0.176394611
C        4.919250782   2.131175274  -0.193515968
C        6.150000000   2.840563253  -0.191372998
C        6.150000000   4.260845058  -0.191372998
C        4.919250782   4.970233037  -0.193515968
C        4.919657622   6.390895733  -0.176394611
C        6.150000000   7.101070472  -0.167540880
C        2.460000000   2.154881885   3.387047899
C        1.252166348   2.853017651   3.386971707
C        1.252166348   4.248390660   3.386971707
C        2.460000000   4.946526426   3.387047899
C        3.667833652   4.248390660   3.386971707
C        3.667833652   2.853017651   3.386971707
H        2.460000000   1.068090430   3.378365688
H        0.310934020   2.309677110   3.378173510
H        0.310934020   4.791731201   3.378173510
H        2.460000000   6.033317881   3.378365688
H        4.609065980   4.791731201   3.378173510
H        4.609065980   2.309677110   3.378173510
End final coordinates



     Writing output data file batch_graph+benzene.save/

     init_run     :     18.29s CPU     18.59s WALL (       1 calls)
     electrons    :   6917.56s CPU   7020.86s WALL (      38 calls)
     update_pot   :    130.83s CPU    133.87s WALL (      37 calls)
     forces       :    368.23s CPU    372.04s WALL (      38 calls)

     Called by init_run:
     wfcinit      :     13.97s CPU     14.12s WALL (       1 calls)
     potinit      :      2.35s CPU      2.45s WALL (       1 calls)
     hinit0       :      1.13s CPU      1.14s WALL (       1 calls)

     Called by electrons:
     c_bands      :   5709.68s CPU   5772.35s WALL (     237 calls)
     sum_band     :    714.89s CPU    730.35s WALL (     237 calls)
     v_of_rho     :    411.20s CPU    430.50s WALL (     266 calls)
     newd         :    145.55s CPU    154.03s WALL (     266 calls)
     mix_rho      :      8.42s CPU      8.68s WALL (     237 calls)

     Called by c_bands:
     init_us_2    :     21.46s CPU     21.53s WALL (    4617 calls)
     cegterg      :   5660.16s CPU   5722.21s WALL (    2133 calls)

     Called by sum_band:
     sum_band:bec :      0.84s CPU      0.84s WALL (    2133 calls)
     addusdens    :    107.27s CPU    114.57s WALL (     237 calls)

     Called by *egterg:
     h_psi        :   2870.75s CPU   2917.78s WALL (    7818 calls)
     s_psi        :    850.90s CPU    853.26s WALL (    7818 calls)
     g_psi        :      4.53s CPU      4.56s WALL (    5676 calls)
     cdiaghg      :    198.30s CPU    198.82s WALL (    7395 calls)

     Called by h_psi:
     h_psi:pot    :   2864.19s CPU   2905.41s WALL (    7818 calls)
     h_psi:calbec :    912.63s CPU    915.56s WALL (    7818 calls)
     vloc_psi     :   1098.94s CPU   1135.18s WALL (    7818 calls)
     add_vuspsi   :    852.58s CPU    854.64s WALL (    7818 calls)

     General routines
     calbec       :   1488.51s CPU   1493.10s WALL (   11319 calls)
     fft          :    272.82s CPU    282.61s WALL (   16804 calls)
     ffts         :      1.22s CPU      1.26s WALL (     503 calls)
     fftw         :   1230.40s CPU   1271.41s WALL ( 1004026 calls)
     interpolate  :      5.15s CPU      5.32s WALL (     266 calls)

     Parallel routines
     fft_scatt_xy :    135.29s CPU    140.30s WALL ( 1021333 calls)
     fft_scatt_yz :    229.47s CPU    247.30s WALL ( 1021333 calls)

     PWSCF        :      2h 4m CPU      2h 6m WALL


   This run was terminated on:   9:56: 8  28Nov2020            

=------------------------------------------------------------------------------=
   JOB DONE.
=------------------------------------------------------------------------------=
