
     Program PWSCF v.6.4.1 starts on  1Dec2020 at 15: 7:14 

     This program is part of the open-source Quantum ESPRESSO suite
     for quantum simulation of materials; please cite
         "P. Giannozzi et al., J. Phys.:Condens. Matter 21 395502 (2009);
         "P. Giannozzi et al., J. Phys.:Condens. Matter 29 465901 (2017);
          URL http://www.quantum-espresso.org", 
     in publications or presentations arising from this work. More details at
     http://www.quantum-espresso.org/quote

     Parallel version (MPI), running on     8 processors

     MPI processes distributed on     1 nodes
     R & G space division:  proc/nbgrp/npool/nimage =       8
     Waiting for input...
     Reading input from standard input

     Current dimensions of program PWSCF are:
     Max number of different atomic species (ntypx) = 10
     Max number of k-points (npk) =  40000
     Max angular momentum in pseudopotentials (lmaxx) =  3

     IMPORTANT: XC functional enforced from input :
     Exchange-correlation      = VDW-DF ( 1  4  4  0 1 0)
     Any further DFT definition will be discarded
     Please, verify this is what you really want

               file C.pbe-rrkjus.UPF: wavefunction(s)  2S 2P renormalized

     Subspace diagonalization in iterative solution of the eigenvalue problem:
     a serial algorithm will be used

     Message from routine setup:
     DEPRECATED: symmetry with ibrav=0, use correct ibrav instead

     Parallelization info
     --------------------
     sticks:   dense  smooth     PW     G-vecs:    dense   smooth      PW
     Min         714     285     79               126154    31889    4649
     Max         715     286     80               126163    31900    4658
     Sum        5713    2283    637              1009261   255153   37237



     bravais-lattice index     =            0
     lattice parameter (alat)  =       4.6487  a.u.
     unit-cell volume          =   10440.3175 (a.u.)^3
     number of atoms/cell      =           36
     number of atomic types    =            2
     number of electrons       =       126.00
     number of Kohn-Sham states=           76
     kinetic-energy cutoff     =      32.0000  Ry
     charge density cutoff     =     320.0000  Ry
     convergence threshold     =      1.0E-06
     mixing beta               =       0.5000
     number of iterations used =            8  plain     mixing
     Exchange-correlation      = VDW-DF ( 1  4  4  0 1 0)
     nstep                     =          200


     celldm(1)=   4.648726  celldm(2)=   0.000000  celldm(3)=   0.000000
     celldm(4)=   0.000000  celldm(5)=   0.000000  celldm(6)=   0.000000

     crystal axes: (cart. coord. in units of alat)
               a(1) = (   3.000000   0.000000   0.000000 )  
               a(2) = (   0.000000   3.464102   0.000000 )  
               a(3) = (   0.000000   0.000000  10.000000 )  

     reciprocal axes: (cart. coord. in units 2 pi/alat)
               b(1) = (  0.333333  0.000000  0.000000 )  
               b(2) = (  0.000000  0.288675  0.000000 )  
               b(3) = (  0.000000  0.000000  0.100000 )  


     PseudoPot. # 1 for C  read from file:
     ../../pseudopotentials/C.pbe-rrkjus.UPF
     MD5 check sum: 00fb224312de0c5b6853bd333518df6f
     Pseudo is Ultrasoft, Zval =  4.0
     Generated by new atomic code, or converted to UPF format
     Using radial grid of  627 points,  4 beta functions with: 
                l(1) =   0
                l(2) =   0
                l(3) =   1
                l(4) =   1
     Q(r) pseudized with 0 coefficients 


     PseudoPot. # 2 for H  read from file:
     ../../pseudopotentials/H.pbe-rrkjus_psl.1.0.0.UPF
     MD5 check sum: 3f4114867bd07edc7f1424d066fc1888
     Pseudo is Ultrasoft, Zval =  1.0
     Generated using "atomic" code by A. Dal Corso v.6.3MaX
     Using radial grid of  929 points,  2 beta functions with: 
                l(1) =   0
                l(2) =   0
     Q(r) pseudized with 0 coefficients 


     vdW kernel table read from file vdW_kernel_table
     MD5 check sum: 48e77a2e26edf626eeb0eaa751ad5cac

     atomic species   valence    mass     pseudopotential
        C              4.00    12.01070     C ( 1.00)
        H              1.00     1.00790     H ( 1.00)

      2 Sym. Ops. (no inversion) found ( 1 have fractional translation)



   Cartesian axes

     site n.     atom                  positions (alat units)
         1           C   tau(   1) = (   0.5000000   0.0000000   0.0000000  )
         2           C   tau(   2) = (   0.0000000   0.2886752   0.0000000  )
         3           C   tau(   3) = (   0.0000000   0.8660255   0.0000000  )
         4           C   tau(   4) = (   0.5000000   1.1547006   0.0000000  )
         5           C   tau(   5) = (   0.5000000   1.7320509   0.0000000  )
         6           C   tau(   6) = (   0.0000000   2.0207261   0.0000000  )
         7           C   tau(   7) = (   0.0000000   2.5980764   0.0000000  )
         8           C   tau(   8) = (   0.5000000   2.8867516   0.0000000  )
         9           C   tau(   9) = (   1.5000001   0.0000000   0.0000000  )
        10           C   tau(  10) = (   1.0000001   0.2886752   0.0000000  )
        11           C   tau(  11) = (   1.0000001   0.8660255   0.0000000  )
        12           C   tau(  12) = (   1.5000001   1.1547006   0.0000000  )
        13           C   tau(  13) = (   1.5000001   1.7320509   0.0000000  )
        14           C   tau(  14) = (   1.0000001   2.0207261   0.0000000  )
        15           C   tau(  15) = (   1.0000001   2.5980764   0.0000000  )
        16           C   tau(  16) = (   1.5000001   2.8867516   0.0000000  )
        17           C   tau(  17) = (   2.5000002   0.0000000   0.0000000  )
        18           C   tau(  18) = (   2.0000002   0.2886752   0.0000000  )
        19           C   tau(  19) = (   2.0000002   0.8660255   0.0000000  )
        20           C   tau(  20) = (   2.5000002   1.1547006   0.0000000  )
        21           C   tau(  21) = (   2.5000002   1.7320509   0.0000000  )
        22           C   tau(  22) = (   2.0000002   2.0207261   0.0000000  )
        23           C   tau(  23) = (   2.0000002   2.5980764   0.0000000  )
        24           C   tau(  24) = (   2.5000002   2.8867516   0.0000000  )
        25           C   tau(  25) = (   1.2835084   0.9523250   1.2195123  )
        26           C   tau(  26) = (   0.7165702   0.9523678   1.2195123  )
        27           C   tau(  27) = (   0.4330598   1.4434223   1.2195123  )
        28           C   tau(  28) = (   0.7164918   1.9344266   1.2195123  )
        29           C   tau(  29) = (   1.2834300   1.9343837   1.2195123  )
        30           C   tau(  30) = (   1.5669404   1.4433293   1.2195123  )
        31           H   tau(  31) = (   1.5052050   0.5683353   1.2195123  )
        32           H   tau(  32) = (   0.4948514   0.5684624   1.2195123  )
        33           H   tau(  33) = (  -0.0102715   1.4433609   1.2195123  )
        34           H   tau(  34) = (   0.4947952   2.3184163   1.2195123  )
        35           H   tau(  35) = (   1.5051487   2.3182892   1.2195123  )
        36           H   tau(  36) = (   2.0102716   1.4433907   1.2195123  )

     number of k points=    10  gaussian smearing, width (Ry)=  0.0200
                       cart. coord. in units 2pi/alat
        k(    1) = (   0.0000000   0.0000000   0.0000000), wk =   0.1250000
        k(    2) = (   0.0000000   0.0721688   0.0000000), wk =   0.2500000
        k(    3) = (   0.0000000  -0.1443376   0.0000000), wk =   0.1250000
        k(    4) = (   0.0833333   0.0000000   0.0000000), wk =   0.2500000
        k(    5) = (   0.0833333   0.0721688   0.0000000), wk =   0.2500000
        k(    6) = (   0.0833333  -0.1443376   0.0000000), wk =   0.2500000
        k(    7) = (  -0.1666667   0.0000000   0.0000000), wk =   0.1250000
        k(    8) = (  -0.1666667   0.0721688   0.0000000), wk =   0.2500000
        k(    9) = (  -0.1666667  -0.1443376   0.0000000), wk =   0.1250000
        k(   10) = (  -0.0833333   0.0721688   0.0000000), wk =   0.2500000

     Dense  grid:  1009261 G-vectors     FFT dimensions: (  81,  96, 270)

     Smooth grid:   255153 G-vectors     FFT dimensions: (  54,  60, 180)

     Estimated max dynamical RAM per process >     428.39 MB

     Estimated total dynamical RAM >       3.35 GB

     Initial potential from superposition of free atoms

     starting charge  125.99836, renormalised to  126.00000

     negative rho (up, down):  2.440E-04 0.000E+00


     %%%%%%%%%%%%%%%%%%%%%%%%%%%%%%%%%%%%%%%%%%%%%%%%%%%%%%%%%%%%%%%%%%%%%%%%
     %                                                                      %
     % You are using vdW-DF, which was implemented by the Thonhauser group. %
     % Please cite the following two papers that made this development      %
     % possible and the two reviews that describe the various versions:     %
     %                                                                      %
     %   T. Thonhauser et al., PRL 115, 136402 (2015).                      %
     %   T. Thonhauser et al., PRB 76, 125112 (2007).                       %
     %   K. Berland et al., Rep. Prog. Phys. 78, 066501 (2015).             %
     %   D.C. Langreth et al., J. Phys.: Condens. Matter 21, 084203 (2009). %
     %                                                                      %
     %                                                                      %
     % If you are calculating the stress with vdW-DF, please also cite:     %
     %                                                                      %
     %   R. Sabatini et al., J. Phys.: Condens. Matter 24, 424209 (2012).   %
     %                                                                      %
     %%%%%%%%%%%%%%%%%%%%%%%%%%%%%%%%%%%%%%%%%%%%%%%%%%%%%%%%%%%%%%%%%%%%%%%%


     Starting wfcs are  126 randomized atomic wfcs

     total cpu time spent up to now is       20.7 secs

     Self-consistent Calculation

     iteration #  1     ecut=    32.00 Ry     beta= 0.50
     Davidson diagonalization with overlap
     ethr =  1.00E-02,  avg # of iterations =  2.0

     negative rho (up, down):  2.068E-04 0.000E+00

     total cpu time spent up to now is       58.1 secs

     total energy              =    -350.85996414 Ry
     Harris-Foulkes estimate   =    -352.95982817 Ry
     estimated scf accuracy    <       4.24651848 Ry

     iteration #  2     ecut=    32.00 Ry     beta= 0.50
     Davidson diagonalization with overlap
     ethr =  3.37E-03,  avg # of iterations =  5.4

     negative rho (up, down):  4.796E-04 0.000E+00

     total cpu time spent up to now is       90.2 secs

     total energy              =    -351.19689050 Ry
     Harris-Foulkes estimate   =    -351.35245936 Ry
     estimated scf accuracy    <       0.39624889 Ry

     iteration #  3     ecut=    32.00 Ry     beta= 0.50
     Davidson diagonalization with overlap
     ethr =  3.14E-04,  avg # of iterations = 10.2

     negative rho (up, down):  4.021E-04 0.000E+00

     total cpu time spent up to now is      127.3 secs

     total energy              =    -351.23471935 Ry
     Harris-Foulkes estimate   =    -351.25314874 Ry
     estimated scf accuracy    <       0.05548908 Ry

     iteration #  4     ecut=    32.00 Ry     beta= 0.50
     Davidson diagonalization with overlap
     ethr =  4.40E-05,  avg # of iterations =  4.8

     negative rho (up, down):  2.713E-04 0.000E+00

     total cpu time spent up to now is      161.3 secs

     total energy              =    -351.24339480 Ry
     Harris-Foulkes estimate   =    -351.24935647 Ry
     estimated scf accuracy    <       0.01814738 Ry

     iteration #  5     ecut=    32.00 Ry     beta= 0.50
     Davidson diagonalization with overlap
     c_bands:  1 eigenvalues not converged
     ethr =  1.44E-05,  avg # of iterations =  4.6

     negative rho (up, down):  2.869E-04 0.000E+00

     total cpu time spent up to now is      191.9 secs

     total energy              =    -351.24704700 Ry
     Harris-Foulkes estimate   =    -351.24732439 Ry
     estimated scf accuracy    <       0.00253779 Ry

     iteration #  6     ecut=    32.00 Ry     beta= 0.50
     Davidson diagonalization with overlap
     ethr =  2.01E-06,  avg # of iterations =  6.4

     negative rho (up, down):  2.343E-04 0.000E+00

     total cpu time spent up to now is      224.8 secs

     total energy              =    -351.24740735 Ry
     Harris-Foulkes estimate   =    -351.24748854 Ry
     estimated scf accuracy    <       0.00028037 Ry

     iteration #  7     ecut=    32.00 Ry     beta= 0.50
     Davidson diagonalization with overlap
     ethr =  2.23E-07,  avg # of iterations =  2.2

     negative rho (up, down):  2.172E-04 0.000E+00

     total cpu time spent up to now is      252.9 secs

     total energy              =    -351.24745904 Ry
     Harris-Foulkes estimate   =    -351.24745742 Ry
     estimated scf accuracy    <       0.00002058 Ry

     iteration #  8     ecut=    32.00 Ry     beta= 0.50
     Davidson diagonalization with overlap
     ethr =  1.63E-08,  avg # of iterations =  2.5

     negative rho (up, down):  2.099E-04 0.000E+00

     total cpu time spent up to now is      286.1 secs

     total energy              =    -351.24746307 Ry
     Harris-Foulkes estimate   =    -351.24746444 Ry
     estimated scf accuracy    <       0.00000395 Ry

     iteration #  9     ecut=    32.00 Ry     beta= 0.50
     Davidson diagonalization with overlap
     ethr =  3.13E-09,  avg # of iterations =  2.2

     negative rho (up, down):  2.069E-04 0.000E+00

     total cpu time spent up to now is      315.1 secs

     End of self-consistent calculation

          k = 0.0000 0.0000 0.0000 ( 31971 PWs)   bands (ev):

   -21.9192 -20.4663 -20.4610 -19.9924 -19.9826 -19.5558 -18.5746 -18.5715
   -18.5714 -18.5712 -16.8460 -16.8136 -16.7076 -15.6448 -15.0643 -15.0634
   -15.0634 -15.0629 -13.2774 -13.2415 -13.0909 -13.0897 -13.0787 -13.0719
   -12.9499 -12.9491 -11.3521 -10.2719 -10.2713 -10.0177  -9.9247  -9.9237
    -9.6295  -9.3257  -9.0986  -9.0979  -9.0784  -9.0772  -8.9453  -8.9089
    -8.9085  -8.7446  -8.6069  -8.4061  -8.2331  -7.8364  -7.7167  -7.5916
    -7.5907  -7.0296  -6.8870  -6.7612  -6.2399  -6.2150  -6.1330  -6.0690
    -5.6203  -5.6192  -4.9017  -4.4503  -4.3330  -2.3889  -2.3887  -2.3428
    -2.3426  -0.7580  -0.0644   0.3896   0.4559   0.6967   1.3513   1.3563
     1.4270   1.5372   1.5779   1.9735

          k = 0.0000 0.0722 0.0000 ( 31929 PWs)   bands (ev):

   -21.8274 -21.0966 -19.9050 -19.8932 -19.6713 -19.5454 -19.1829 -19.1757
   -17.8078 -17.8073 -17.5937 -16.8182 -16.8136 -15.9351 -15.9346 -14.6534
   -14.5355 -14.5344 -13.6901 -13.6888 -13.2667 -13.2268 -12.4297 -12.4279
   -12.3619 -12.3603 -11.5571 -11.3444 -10.7327 -10.7317 -10.1301 -10.1294
    -9.9176  -9.6219  -9.3277  -9.1115  -8.8547  -8.6619  -8.6169  -8.5960
    -8.5848  -8.4255  -8.4225  -8.3455  -8.1553  -7.8054  -7.6259  -7.4333
    -7.1029  -6.9449  -6.9171  -6.8720  -6.6840  -6.6431  -5.9850  -5.8102
    -5.4457  -5.4036  -5.2785  -4.4472  -4.4139  -3.3573  -3.3480  -1.3999
    -1.3972  -0.1711   0.0768   0.2285   0.3542   0.6929   0.7314   0.8276
     1.3128   1.7879   1.8658   2.2149

          k = 0.0000-0.1443 0.0000 ( 31940 PWs)   bands (ev):

   -21.5622 -21.5429 -19.6786 -19.6380 -19.6362 -19.6127 -19.5041 -18.6886
   -18.6854 -16.9441 -16.9375 -16.9119 -16.9050 -16.7865 -16.7797 -14.1646
   -14.1638 -14.1455 -14.1431 -13.2821 -13.2282 -13.1617 -13.1411 -11.5540
   -11.5523 -11.5403 -11.5396 -11.3664 -11.3353 -11.3304 -11.3196 -11.2950
    -9.6241  -9.6164  -9.6026  -9.3279  -8.6844  -8.6036  -8.6013  -8.5678
    -8.2944  -8.2841  -8.2834  -8.2737  -7.6590  -7.3519  -7.3485  -7.3274
    -6.9811  -6.9618  -6.9548  -6.7958  -6.7269  -6.3608  -6.3186  -6.2918
    -6.2230  -4.7841  -4.7662  -4.4033  -4.3950  -4.1088  -4.0764  -0.5393
    -0.5231  -0.4532  -0.4430   0.3171   0.3991   0.5715   0.8796   1.1949
     1.2535   1.4281   1.5605   2.0739

          k = 0.0833 0.0000 0.0000 ( 31951 PWs)   bands (ev):

   -21.7968 -20.8248 -20.3470 -20.3412 -19.5764 -19.3899 -19.3724 -18.9202
   -17.5672 -17.5652 -16.8334 -16.8254 -16.6152 -16.2772 -15.7901 -15.5436
   -14.8921 -14.6300 -14.6283 -14.1347 -13.2384 -13.2275 -12.4153 -12.1698
   -11.7134 -11.4948 -11.4944 -11.3064 -10.1884  -9.9500  -9.9490  -9.8826
    -9.6853  -9.4535  -9.3230  -9.1636  -9.1626  -8.9865  -8.9861  -8.8707
    -8.7488  -8.7241  -8.6127  -8.2398  -8.1114  -8.0463  -8.0457  -7.6702
    -7.3058  -7.0731  -6.8407  -6.7550  -6.7262  -6.4594  -6.0926  -5.8806
    -5.3353  -5.2845  -4.7856  -4.4450  -4.2952  -3.6216  -3.3578  -1.4332
    -1.0950  -0.7852  -0.1948  -0.0805   0.1391   0.6209   0.6940   0.8711
     1.4883   1.7404   2.1266   2.2024

          k = 0.0833 0.0722 0.0000 ( 31951 PWs)   bands (ev):

   -21.7052 -20.9757 -20.7343 -20.0166 -19.5903 -19.5060 -18.8330 -18.6019
   -18.1445 -17.4838 -16.9086 -16.8233 -16.8011 -16.6047 -16.2410 -15.1462
   -14.6556 -14.5619 -14.0451 -13.9214 -13.2367 -13.2287 -12.2253 -12.2140
   -11.9944 -11.7845 -11.5210 -11.2998 -10.7313 -10.3471  -9.7814  -9.7356
    -9.7011  -9.6673  -9.3613  -9.3255  -9.1556  -8.9867  -8.8174  -8.7757
    -8.6664  -8.6386  -8.5279  -8.4821  -8.1626  -7.8321  -7.5280  -7.3543
    -7.3398  -6.9695  -6.7561  -6.7456  -6.4337  -6.4023  -6.1618  -6.0509
    -5.7779  -5.2115  -4.8451  -4.4627  -4.3813  -3.9301  -3.7233  -1.0758
    -0.7667  -0.6213  -0.1675   0.2467   0.3511   0.6269   0.8723   1.0001
     1.4427   1.5894   1.6952   1.9646

          k = 0.0833-0.1443 0.0000 ( 31876 PWs)   bands (ev):

   -21.4404 -21.4212 -20.4724 -20.4548 -19.5617 -18.5854 -18.5757 -18.5697
   -18.5586 -17.6692 -17.6645 -16.8306 -16.8184 -16.3183 -16.3019 -15.2579
   -15.2554 -13.2537 -13.2423 -13.0942 -13.0931 -13.0774 -13.0716 -13.0150
   -12.9973 -11.4033 -11.3909 -11.2872 -10.7118 -10.7018  -9.9289  -9.9179
    -9.6744  -9.4932  -9.4583  -9.3244  -9.1018  -9.0927  -9.0826  -9.0720
    -8.7633  -8.6929  -8.3302  -8.2726  -7.5967  -7.5875  -7.2755  -7.2630
    -7.1247  -6.7680  -6.7673  -6.6152  -6.5997  -6.2379  -6.1764  -6.1490
    -6.1012  -5.2327  -5.1533  -4.6001  -4.4324  -4.0559  -3.9589  -0.9649
    -0.9299   0.2307   0.3308   0.4621   0.5656   0.6181   1.0706   1.3442
     1.3508   1.3805   1.4203   1.4646

          k =-0.1667 0.0000 0.0000 ( 31854 PWs)   bands (ev):

   -21.4381 -21.4235 -19.9927 -19.9921 -19.9916 -19.9733 -19.5423 -17.6705
   -17.6637 -16.8677 -16.8419 -16.7204 -16.7002 -16.3242 -16.2952 -15.6447
   -15.6427 -15.2680 -15.2469 -13.2380 -13.2070 -13.0113 -13.0046 -11.3977
   -11.3946 -11.2516 -10.7143 -10.6990 -10.2781 -10.2762 -10.2671 -10.2668
    -9.7548  -9.4869  -9.4731  -9.3191  -8.9498  -8.9492  -8.9122  -8.9110
    -8.9057  -8.9033  -8.7840  -8.7075  -7.9594  -7.7217  -7.7209  -7.7204
    -7.2775  -7.2599  -6.8973  -6.7383  -6.6369  -6.6185  -6.5979  -5.3198
    -5.1066  -4.8908  -4.8811  -4.5707  -4.2140  -4.1529  -3.9162  -0.9890
    -0.9117  -0.7918  -0.6939   0.2881   0.4521   0.5594   0.6346   0.7829
     0.8544   1.3679   1.4107   2.1898

          k =-0.1667 0.0722 0.0000 ( 31908 PWs)   bands (ev):

   -21.3469 -21.3324 -20.6206 -20.6071 -19.5641 -19.1938 -19.1681 -17.5888
   -17.5817 -17.1626 -17.1535 -17.0098 -16.9901 -16.8083 -16.8030 -15.2435
   -15.2414 -14.3200 -14.2996 -13.5696 -13.5636 -13.2260 -13.2052 -11.5268
   -11.5077 -11.2513 -10.8255 -10.8230 -10.6110 -10.5955  -9.7634  -9.7435
    -9.7165  -9.3924  -9.3675  -9.3260  -9.2560  -9.2489  -9.2152  -9.2151
    -8.7991  -8.7759  -8.4647  -8.4338  -7.9053  -7.9005  -7.6388  -7.6277
    -7.2082  -6.8208  -6.7410  -6.6990  -6.6505  -6.6364  -6.6094  -5.2934
    -5.0859  -4.9778  -4.9172  -4.7773  -4.7137  -4.2096  -4.2043  -0.6422
    -0.5626  -0.3363  -0.2589   0.1382   0.2638   0.6404   0.7012   0.7442
     0.9697   1.4969   1.5248   1.6753

          k =-0.1667-0.1443 0.0000 ( 31784 PWs)   bands (ev):

   -21.0816 -21.0702 -21.0656 -21.0484 -19.5593 -18.2427 -18.2355 -18.2213
   -18.2196 -17.3610 -17.3516 -17.3423 -17.3344 -16.8220 -16.8153 -14.4628
   -14.4515 -14.4497 -14.4436 -13.2311 -13.2148 -12.9303 -12.9270 -12.9117
   -12.8940 -11.2446 -10.3070 -10.2964 -10.2844 -10.2648  -9.9411  -9.9300
    -9.9160  -9.9110  -9.7405  -9.3234  -9.1426  -9.1115  -9.0719  -8.9974
    -8.6999  -8.6251  -8.3802  -8.3785  -8.3772  -8.3675  -7.0978  -7.0618
    -7.0578  -7.0561  -7.0429  -6.7634  -6.6376  -5.9117  -5.7868  -5.7531
    -5.6946  -5.2427  -4.9846  -4.9559  -4.9333  -4.3309  -4.2164  -0.3641
    -0.1969  -0.1422  -0.1213   0.4460   0.6923   0.7605   1.0502   1.0758
     1.0774   1.1579   1.3113   1.3898

          k =-0.0833 0.0722 0.0000 ( 31951 PWs)   bands (ev):

   -21.7052 -20.9757 -20.7343 -20.0166 -19.5903 -19.5060 -18.8330 -18.6019
   -18.1445 -17.4838 -16.9089 -16.8220 -16.8020 -16.6047 -16.2410 -15.1462
   -14.6556 -14.5619 -14.0451 -13.9214 -13.2367 -13.2286 -12.2253 -12.2140
   -11.9944 -11.7845 -11.5210 -11.2998 -10.7313 -10.3471  -9.7815  -9.7356
    -9.7011  -9.6673  -9.3613  -9.3255  -9.1556  -8.9866  -8.8173  -8.7757
    -8.6671  -8.6387  -8.5274  -8.4821  -8.1626  -7.8321  -7.5280  -7.3543
    -7.3398  -6.9695  -6.7565  -6.7453  -6.4337  -6.4024  -6.1617  -6.0509
    -5.7778  -5.2115  -4.8454  -4.4618  -4.3818  -3.9303  -3.7232  -1.0758
    -0.7667  -0.6214  -0.1674   0.2467   0.3514   0.6263   0.8725   1.0001
     1.4427   1.5895   1.6952   1.9646

     the Fermi energy is    -2.3657 ev

!    total energy              =    -351.24746328 Ry
     Harris-Foulkes estimate   =    -351.24746368 Ry
     estimated scf accuracy    <       0.00000048 Ry

     The total energy is the sum of the following terms:

     one-electron contribution =   -4816.28920839 Ry
     hartree contribution      =    2428.10541700 Ry
     xc contribution           =    -112.31895937 Ry
     ewald contribution        =    2149.25808832 Ry
     smearing contrib. (-TS)   =      -0.00280083 Ry

     convergence has been achieved in   9 iterations

     Forces acting on atoms (cartesian axes, Ry/au):

     atom    1 type  1   force =    -0.00083870    0.00064115    0.00073080
     atom    2 type  1   force =     0.00070942   -0.00085739    0.00071540
     atom    3 type  1   force =     0.00352121    0.00273438   -0.00224418
     atom    4 type  1   force =    -0.00068104   -0.00074910   -0.01226223
     atom    5 type  1   force =    -0.00068144    0.00074831   -0.01226282
     atom    6 type  1   force =     0.00352024   -0.00273472   -0.00224457
     atom    7 type  1   force =     0.00070977    0.00085647    0.00071494
     atom    8 type  1   force =    -0.00083821   -0.00064148    0.00073077
     atom    9 type  1   force =     0.00083821    0.00064148    0.00073077
     atom   10 type  1   force =     0.00000032    0.00401259   -0.00234169
     atom   11 type  1   force =    -0.00000100   -0.00066767   -0.01253982
     atom   12 type  1   force =     0.00068144   -0.00074831   -0.01226282
     atom   13 type  1   force =     0.00068104    0.00074910   -0.01226223
     atom   14 type  1   force =     0.00000100    0.00066767   -0.01253982
     atom   15 type  1   force =    -0.00000032   -0.00401259   -0.00234169
     atom   16 type  1   force =     0.00083870   -0.00064115    0.00073080
     atom   17 type  1   force =     0.00000068    0.00002075    0.00051310
     atom   18 type  1   force =    -0.00070977   -0.00085647    0.00071494
     atom   19 type  1   force =    -0.00352024    0.00273472   -0.00224457
     atom   20 type  1   force =    -0.00000082    0.00037682    0.00095039
     atom   21 type  1   force =     0.00000082   -0.00037682    0.00095039
     atom   22 type  1   force =    -0.00352121   -0.00273438   -0.00224418
     atom   23 type  1   force =    -0.00070942    0.00085739    0.00071540
     atom   24 type  1   force =    -0.00000068   -0.00002075    0.00051310
     atom   25 type  1   force =     0.00190778   -0.00273657    0.01369684
     atom   26 type  1   force =    -0.00202922   -0.00244644    0.01369589
     atom   27 type  1   force =    -0.00203842   -0.00025485    0.01370365
     atom   28 type  1   force =    -0.00190778    0.00273657    0.01369684
     atom   29 type  1   force =     0.00202922    0.00244644    0.01369589
     atom   30 type  1   force =     0.00203842    0.00025485    0.01370365
     atom   31 type  2   force =    -0.00249104    0.00430556   -0.00055430
     atom   32 type  2   force =     0.00240070    0.00413807   -0.00055491
     atom   33 type  2   force =     0.00620819    0.00000530   -0.00044726
     atom   34 type  2   force =     0.00249104   -0.00430556   -0.00055430
     atom   35 type  2   force =    -0.00240070   -0.00413807   -0.00055491
     atom   36 type  2   force =    -0.00620819   -0.00000530   -0.00044726

     Total force =     0.049303     Total SCF correction =     0.001632

     BFGS Geometry Optimization

     number of scf cycles    =   1
     number of bfgs steps    =   0

     energy   new            =    -351.2474632772 Ry

     new trust radius        =       0.0140972332 bohr
     new conv_thr            =       0.0000010000 Ry


ATOMIC_POSITIONS (angstrom)
C        1.229556179   0.000339284   0.000386722
C        0.000375409   0.709687122   0.000378571
C        0.001863342   2.131869466  -0.001187570
C        1.229639611   2.840166918  -0.006488890
C        1.229639398   4.261240976  -0.006489202
C        0.001862829   4.969538666  -0.001187778
C        0.000375593   6.391720705   0.000378328
C        1.229556437   7.101068853   0.000386707
C        3.690443563   0.000339458   0.000386707
C        2.460000171   0.712264203  -0.001239168
C        2.459999472   2.130069178  -0.006635788
C        3.690360602   2.840167335  -0.006489202
C        3.690360389   4.261241393  -0.006488890
C        2.460000528   4.971339133  -0.006635788
C        2.459999829   6.389144108  -0.001239168
C        3.690443821   7.101069027   0.000386722
C        6.150000360   0.000010983   0.000271521
C        4.919624407   0.709687606   0.000378328
C        4.918137171   2.131869645  -0.001187778
C        6.149999569   2.840762727   0.000502926
C        6.150000431   4.260645584   0.000502926
C        4.918136658   4.969538845  -0.001187570
C        4.919624591   6.391721189   0.000378571
C        6.149999640   7.101397328   0.000271521
C        3.158439964   2.341271123   3.007248058
C        1.761688702   2.341530125   3.007247553
C        1.064248302   3.550683638   3.007251659
C        1.761560036   4.760137188   3.007248058
C        3.158311298   4.759878186   3.007247553
C        3.855751698   3.550724673   3.007251659
H        3.701485696   1.400383063   2.999706676
H        1.218604781   1.400607153   2.999706355
H       -0.021982594   3.550670356   2.999763319
H        1.218514304   5.701025248   2.999706676
H        3.701395219   5.700801159   2.999706355
H        4.941982594   3.550737955   2.999763319



     Writing output data file batch_graph+benzene.save/
     NEW-OLD atomic charge density approx. for the potential

     negative rho (up, down):  2.059E-04 0.000E+00

     total cpu time spent up to now is      329.9 secs

     Self-consistent Calculation

     iteration #  1     ecut=    32.00 Ry     beta= 0.50
     Davidson diagonalization with overlap
     ethr =  1.00E-06,  avg # of iterations =  3.8

     negative rho (up, down):  2.060E-04 0.000E+00

     total cpu time spent up to now is      377.5 secs

     total energy              =    -351.24955048 Ry
     Harris-Foulkes estimate   =    -351.24974446 Ry
     estimated scf accuracy    <       0.00044600 Ry

     iteration #  2     ecut=    32.00 Ry     beta= 0.50
     Davidson diagonalization with overlap
     ethr =  3.54E-07,  avg # of iterations =  2.0

     negative rho (up, down):  2.061E-04 0.000E+00

     total cpu time spent up to now is      407.9 secs

     total energy              =    -351.24961858 Ry
     Harris-Foulkes estimate   =    -351.24962769 Ry
     estimated scf accuracy    <       0.00004758 Ry

     iteration #  3     ecut=    32.00 Ry     beta= 0.50
     Davidson diagonalization with overlap
     ethr =  3.78E-08,  avg # of iterations =  2.0

     negative rho (up, down):  2.073E-04 0.000E+00

     total cpu time spent up to now is      437.6 secs

     total energy              =    -351.24962498 Ry
     Harris-Foulkes estimate   =    -351.24962592 Ry
     estimated scf accuracy    <       0.00000985 Ry

     iteration #  4     ecut=    32.00 Ry     beta= 0.50
     Davidson diagonalization with overlap
     ethr =  7.82E-09,  avg # of iterations =  2.0

     negative rho (up, down):  2.074E-04 0.000E+00

     total cpu time spent up to now is      467.6 secs

     total energy              =    -351.24962643 Ry
     Harris-Foulkes estimate   =    -351.24962673 Ry
     estimated scf accuracy    <       0.00000201 Ry

     iteration #  5     ecut=    32.00 Ry     beta= 0.50
     Davidson diagonalization with overlap
     ethr =  1.59E-09,  avg # of iterations =  2.2

     negative rho (up, down):  2.062E-04 0.000E+00

     total cpu time spent up to now is      496.6 secs

     End of self-consistent calculation

          k = 0.0000 0.0000 0.0000 ( 31971 PWs)   bands (ev):

   -21.9240 -20.4709 -20.4659 -19.9932 -19.9911 -19.5382 -18.5833 -18.5827
   -18.5734 -18.5698 -16.8421 -16.8129 -16.7142 -15.6460 -15.0802 -15.0765
   -15.0613 -15.0576 -13.2845 -13.2515 -13.1017 -13.0908 -13.0908 -13.0743
   -12.9585 -12.9520 -11.3621 -10.2902 -10.2719 -10.0204  -9.9263  -9.9256
    -9.6683  -9.3123  -9.1019  -9.0959  -9.0874  -9.0843  -8.9543  -8.9152
    -8.9031  -8.7546  -8.6186  -8.4037  -8.2376  -7.8310  -7.7238  -7.6011
    -7.6002  -7.0303  -6.8890  -6.7763  -6.2451  -6.2144  -6.1391  -6.0715
    -5.6314  -5.6191  -4.9001  -4.4533  -4.3406  -2.4076  -2.4020  -2.3404
    -2.3349  -0.7541  -0.0558   0.3861   0.4500   0.6951   1.3375   1.3527
     1.4148   1.5297   1.5803   1.9754

          k = 0.0000 0.0722 0.0000 ( 31929 PWs)   bands (ev):

   -21.8323 -21.1015 -19.9036 -19.9034 -19.6722 -19.5320 -19.1933 -19.1756
   -17.8170 -17.8082 -17.5987 -16.8142 -16.8130 -15.9432 -15.9371 -14.6557
   -14.5439 -14.5377 -13.7002 -13.6907 -13.2745 -13.2387 -12.4363 -12.4305
   -12.3744 -12.3618 -11.5596 -11.3545 -10.7480 -10.7322 -10.1350 -10.1335
    -9.9202  -9.6609  -9.3142  -9.1142  -8.8632  -8.6712  -8.6232  -8.6058
    -8.5853  -8.4317  -8.4220  -8.3492  -8.1643  -7.7957  -7.6327  -7.4337
    -7.1041  -6.9550  -6.9253  -6.8744  -6.6974  -6.6485  -5.9843  -5.8222
    -5.4430  -5.4067  -5.2820  -4.4506  -4.4169  -3.3657  -3.3542  -1.4057
    -1.4001  -0.1656   0.0839   0.2301   0.3475   0.6783   0.7178   0.8257
     1.3181   1.7935   1.8649   2.2159

          k = 0.0000-0.1443 0.0000 ( 31940 PWs)   bands (ev):

   -21.5655 -21.5493 -19.6692 -19.6454 -19.6354 -19.6263 -19.4951 -18.6929
   -18.6910 -16.9414 -16.9413 -16.9163 -16.9129 -16.7890 -16.7794 -14.1702
   -14.1655 -14.1587 -14.1460 -13.2883 -13.2402 -13.1638 -13.1464 -11.5653
   -11.5555 -11.5503 -11.5424 -11.3721 -11.3413 -11.3314 -11.3277 -11.3035
    -9.6556  -9.6254  -9.6060  -9.3145  -8.6941  -8.6150  -8.6054  -8.5819
    -8.3000  -8.2888  -8.2877  -8.2724  -7.6448  -7.3589  -7.3546  -7.3278
    -6.9856  -6.9617  -6.9533  -6.8018  -6.7421  -6.3632  -6.3253  -6.3073
    -6.2299  -4.7744  -4.7593  -4.4123  -4.3982  -4.1219  -4.0877  -0.5405
    -0.5287  -0.4587  -0.4425   0.3197   0.3949   0.5570   0.8881   1.1927
     1.2564   1.4230   1.5551   2.0811

          k = 0.0833 0.0000 0.0000 ( 31951 PWs)   bands (ev):

   -21.8017 -20.8297 -20.3515 -20.3460 -19.5590 -19.3950 -19.3767 -18.9254
   -17.5720 -17.5700 -16.8287 -16.8249 -16.6225 -16.2823 -15.7975 -15.5448
   -14.8934 -14.6363 -14.6347 -14.1425 -13.2460 -13.2395 -12.4182 -12.1771
   -11.7224 -11.5006 -11.5004 -11.3169 -10.1898  -9.9518  -9.9512  -9.8851
    -9.7227  -9.4619  -9.3096  -9.1678  -9.1678  -8.9908  -8.9905  -8.8754
    -8.7585  -8.7351  -8.6182  -8.2387  -8.1155  -8.0556  -8.0551  -7.6704
    -7.3021  -7.0769  -6.8462  -6.7600  -6.7410  -6.4646  -6.1045  -5.8797
    -5.3331  -5.2843  -4.7835  -4.4492  -4.3043  -3.6280  -3.3681  -1.4336
    -1.1017  -0.7815  -0.1958  -0.0845   0.1457   0.6091   0.6763   0.8696
     1.4907   1.7431   2.1253   2.1982

          k = 0.0833 0.0722 0.0000 ( 31951 PWs)   bands (ev):

   -21.7101 -20.9805 -20.7392 -20.0211 -19.5812 -19.5018 -18.8382 -18.6071
   -18.1496 -17.4889 -16.9099 -16.8200 -16.8028 -16.6107 -16.2459 -15.1528
   -14.6628 -14.5646 -14.0480 -13.9278 -13.2445 -13.2405 -12.2327 -12.2189
   -12.0021 -11.7881 -11.5237 -11.3103 -10.7376 -10.3529  -9.7841  -9.7408
    -9.7220  -9.6856  -9.3696  -9.3121  -9.1640  -8.9900  -8.8234  -8.7796
    -8.6748  -8.6480  -8.5328  -8.4839  -8.1670  -7.8310  -7.5299  -7.3557
    -7.3483  -6.9723  -6.7713  -6.7504  -6.4404  -6.4061  -6.1655  -6.0553
    -5.7794  -5.2124  -4.8408  -4.4641  -4.3877  -3.9417  -3.7304  -1.0821
    -0.7682  -0.6247  -0.1640   0.2509   0.3488   0.6138   0.8572   0.9981
     1.4475   1.5914   1.6896   1.9558

          k = 0.0833-0.1443 0.0000 ( 31876 PWs)   bands (ev):

   -21.4437 -21.4276 -20.4758 -20.4612 -19.5432 -18.5889 -18.5826 -18.5752
   -18.5631 -17.6734 -17.6703 -16.8296 -16.8146 -16.3227 -16.3069 -15.2641
   -15.2635 -13.2598 -13.2530 -13.1014 -13.0941 -13.0810 -13.0787 -13.0188
   -13.0042 -11.4072 -11.4002 -11.2984 -10.7154 -10.7064  -9.9334  -9.9276
    -9.7121  -9.4945  -9.4618  -9.3111  -9.1060  -9.0971  -9.0892  -9.0812
    -8.7721  -8.7024  -8.3300  -8.2761  -7.6027  -7.5878  -7.2822  -7.2623
    -7.1211  -6.7825  -6.7724  -6.6193  -6.6125  -6.2420  -6.1802  -6.1503
    -6.1066  -5.2321  -5.1552  -4.5985  -4.4351  -4.0642  -3.9698  -0.9689
    -0.9363   0.2368   0.3291   0.4634   0.5533   0.6106   1.0771   1.3385
     1.3418   1.3786   1.4222   1.4522

          k =-0.1667 0.0000 0.0000 ( 31854 PWs)   bands (ev):

   -21.4407 -21.4308 -19.9994 -19.9929 -19.9888 -19.9865 -19.5257 -17.6753
   -17.6689 -16.8661 -16.8372 -16.7247 -16.7061 -16.3297 -16.3043 -15.6517
   -15.6497 -15.2625 -15.2550 -13.2491 -13.2146 -13.0195 -13.0139 -11.3996
   -11.3966 -11.2627 -10.7241 -10.7049 -10.2857 -10.2835 -10.2667 -10.2659
    -9.7906  -9.4887  -9.4755  -9.3057  -8.9545  -8.9497  -8.9287  -8.9197
    -8.9164  -8.9009  -8.7931  -8.7180  -7.9503  -7.7287  -7.7276  -7.7208
    -7.2939  -7.2656  -6.9025  -6.7538  -6.6436  -6.6107  -6.6050  -5.3123
    -5.1106  -4.8834  -4.8818  -4.5714  -4.2273  -4.1622  -3.9301  -0.9907
    -0.9062  -0.7943  -0.7002   0.2849   0.4443   0.5620   0.6246   0.7612
     0.8593   1.3661   1.4096   2.1940

          k =-0.1667 0.0722 0.0000 ( 31908 PWs)   bands (ev):

   -21.3494 -21.3396 -20.6230 -20.6144 -19.5456 -19.1960 -19.1760 -17.5936
   -17.5869 -17.1651 -17.1604 -17.0124 -16.9943 -16.8105 -16.8008 -15.2501
   -15.2480 -14.3172 -14.3080 -13.5764 -13.5706 -13.2383 -13.2128 -11.5235
   -11.5166 -11.2622 -10.8287 -10.8263 -10.6208 -10.6017  -9.7931  -9.7541
    -9.7289  -9.3939  -9.3702  -9.3144  -9.2571  -9.2554  -9.2195  -9.2193
    -8.8079  -8.7834  -8.4676  -8.4366  -7.9117  -7.9059  -7.6528  -7.6311
    -7.2040  -6.8264  -6.7542  -6.7062  -6.6456  -6.6454  -6.6167  -5.2849
    -5.0877  -4.9719  -4.9191  -4.7816  -4.7206  -4.2231  -4.2162  -0.6443
    -0.5667  -0.3380  -0.2556   0.1347   0.2557   0.6419   0.6893   0.7226
     0.9745   1.4940   1.5234   1.6809

          k =-0.1667-0.1443 0.0000 ( 31784 PWs)   bands (ev):

   -21.0840 -21.0745 -21.0682 -21.0587 -19.5407 -18.2457 -18.2368 -18.2297
   -18.2270 -17.3641 -17.3546 -17.3482 -17.3414 -16.8227 -16.8117 -14.4671
   -14.4581 -14.4564 -14.4525 -13.2430 -13.2215 -12.9262 -12.9257 -12.9203
   -12.9033 -11.2556 -10.3135 -10.2982 -10.2981 -10.2757  -9.9461  -9.9345
    -9.9190  -9.9144  -9.7757  -9.3102  -9.1417  -9.1160  -9.0762  -9.0002
    -8.7071  -8.6341  -8.3948  -8.3862  -8.3792  -8.3693  -7.0948  -7.0664
    -7.0635  -7.0539  -7.0517  -6.7785  -6.6444  -5.9114  -5.7906  -5.7571
    -5.7009  -5.2342  -4.9848  -4.9595  -4.9374  -4.3384  -4.2299  -0.3625
    -0.2002  -0.1495  -0.1283   0.4463   0.6745   0.7587   1.0439   1.0757
     1.0765   1.1580   1.2985   1.3954

          k =-0.0833 0.0722 0.0000 ( 31951 PWs)   bands (ev):

   -21.7101 -20.9805 -20.7392 -20.0211 -19.5812 -19.5018 -18.8382 -18.6071
   -18.1497 -17.4889 -16.9098 -16.8203 -16.8026 -16.6107 -16.2459 -15.1528
   -14.6628 -14.5646 -14.0480 -13.9278 -13.2444 -13.2406 -12.2327 -12.2189
   -12.0021 -11.7881 -11.5237 -11.3103 -10.7376 -10.3529  -9.7841  -9.7408
    -9.7220  -9.6856  -9.3696  -9.3121  -9.1640  -8.9899  -8.8233  -8.7796
    -8.6752  -8.6480  -8.5326  -8.4839  -8.1670  -7.8310  -7.5299  -7.3557
    -7.3483  -6.9724  -6.7703  -6.7514  -6.4404  -6.4060  -6.1655  -6.0553
    -5.7794  -5.2124  -4.8407  -4.4644  -4.3875  -3.9416  -3.7304  -1.0821
    -0.7682  -0.6247  -0.1641   0.2509   0.3484   0.6148   0.8567   0.9981
     1.4474   1.5915   1.6895   1.9558

     the Fermi energy is    -2.3712 ev

!    total energy              =    -351.24962668 Ry
     Harris-Foulkes estimate   =    -351.24962692 Ry
     estimated scf accuracy    <       0.00000043 Ry

     The total energy is the sum of the following terms:

     one-electron contribution =   -4812.62467590 Ry
     hartree contribution      =    2426.26278754 Ry
     xc contribution           =    -112.32511614 Ry
     ewald contribution        =    2147.44015587 Ry
     smearing contrib. (-TS)   =      -0.00277803 Ry

     convergence has been achieved in   5 iterations

     Forces acting on atoms (cartesian axes, Ry/au):

     atom    1 type  1   force =     0.00062464    0.00042365    0.00066798
     atom    2 type  1   force =     0.00130759    0.00036760    0.00094842
     atom    3 type  1   force =     0.00009192   -0.00023673   -0.00266827
     atom    4 type  1   force =     0.00144815    0.00131126   -0.01115268
     atom    5 type  1   force =     0.00144961   -0.00131027   -0.01115337
     atom    6 type  1   force =     0.00009371    0.00023627   -0.00266896
     atom    7 type  1   force =     0.00130703   -0.00036752    0.00094838
     atom    8 type  1   force =     0.00062364   -0.00042354    0.00066776
     atom    9 type  1   force =    -0.00062364    0.00042354    0.00066776
     atom   10 type  1   force =    -0.00000099    0.00071306   -0.00306284
     atom   11 type  1   force =     0.00000192    0.00137379   -0.01150751
     atom   12 type  1   force =    -0.00144961    0.00131027   -0.01115337
     atom   13 type  1   force =    -0.00144815   -0.00131126   -0.01115268
     atom   14 type  1   force =    -0.00000192   -0.00137379   -0.01150751
     atom   15 type  1   force =     0.00000099   -0.00071306   -0.00306284
     atom   16 type  1   force =    -0.00062464   -0.00042365    0.00066798
     atom   17 type  1   force =    -0.00000112   -0.00004336    0.00092845
     atom   18 type  1   force =    -0.00130703    0.00036752    0.00094838
     atom   19 type  1   force =    -0.00009371   -0.00023627   -0.00266896
     atom   20 type  1   force =     0.00000171    0.00086730    0.00051623
     atom   21 type  1   force =    -0.00000171   -0.00086730    0.00051623
     atom   22 type  1   force =    -0.00009192    0.00023673   -0.00266827
     atom   23 type  1   force =    -0.00130759   -0.00036760    0.00094842
     atom   24 type  1   force =     0.00000112    0.00004336    0.00092845
     atom   25 type  1   force =    -0.00312633    0.00410409    0.01254924
     atom   26 type  1   force =     0.00314014    0.00357610    0.01254853
     atom   27 type  1   force =     0.00489346    0.00027809    0.01256118
     atom   28 type  1   force =     0.00312633   -0.00410409    0.01254924
     atom   29 type  1   force =    -0.00314014   -0.00357610    0.01254853
     atom   30 type  1   force =    -0.00489346   -0.00027809    0.01256118
     atom   31 type  2   force =     0.00024458   -0.00028178   -0.00007472
     atom   32 type  2   force =    -0.00024586   -0.00024467   -0.00007420
     atom   33 type  2   force =     0.00077412   -0.00002061    0.00002638
     atom   34 type  2   force =    -0.00024458    0.00028178   -0.00007472
     atom   35 type  2   force =     0.00024586    0.00024467   -0.00007420
     atom   36 type  2   force =    -0.00077412    0.00002061    0.00002638

     Total force =     0.044074     Total SCF correction =     0.001698

     number of scf cycles    =   2
     number of bfgs steps    =   1

     energy   old            =    -351.2474632772 Ry
     energy   new            =    -351.2496266750 Ry

     CASE: energy  _new < energy  _old

     new trust radius        =       0.0155069565 bohr
     new conv_thr            =       0.0000010000 Ry


ATOMIC_POSITIONS (angstrom)
C        1.229503081   0.000668149   0.000820783
C        0.001007628   0.709546165   0.000897698
C        0.002954589   2.132618308  -0.002717879
C        1.229897493   2.840360485  -0.013754311
C        1.229897625   4.261047488  -0.013755022
C        0.002954358   4.968789575  -0.002718427
C        0.001007738   6.391861412   0.000897300
C        1.229503168   7.100739921   0.000820688
C        3.690496832   0.000668390   0.000820688
C        2.459999951   0.713702330  -0.002925102
C        2.459999786   2.130307305  -0.014098428
C        3.690102375   2.840360823  -0.013755022
C        3.690102507   4.261047826  -0.013754311
C        2.460000214   4.971101006  -0.014098428
C        2.460000049   6.387705981  -0.002925102
C        3.690496919   7.100740162   0.000820783
C        6.150000206   0.000003373   0.000723254
C        4.918992262   0.709546899   0.000897300
C        4.917045642   2.132618736  -0.002718427
C        6.149999870   2.841153801   0.000954663
C        6.150000130   4.260254510   0.000954663
C        4.917045411   4.968790003  -0.002717879
C        4.918992372   6.391862146   0.000897698
C        6.149999794   7.101404938   0.000723254
C        3.158015175   2.341758763   3.015392847
C        1.762081288   2.341936358   3.015391830
C        1.065198992   3.550695746   3.015402322
C        1.761984825   4.759649548   3.015392847
C        3.157918712   4.759471953   3.015391830
C        3.854801008   3.550712565   3.015402322
H        3.700812746   1.401591292   2.999515619
H        1.219250078   1.401776745   2.999515282
H       -0.019862839   3.550665359   2.999636884
H        1.219187254   5.699817019   2.999515619
H        3.700749922   5.699631566   2.999515282
H        4.939862839   3.550742952   2.999636884



     Writing output data file batch_graph+benzene.save/
     NEW-OLD atomic charge density approx. for the potential

     negative rho (up, down):  2.058E-04 0.000E+00

     total cpu time spent up to now is      511.5 secs

     Self-consistent Calculation

     iteration #  1     ecut=    32.00 Ry     beta= 0.50
     Davidson diagonalization with overlap
     ethr =  1.00E-06,  avg # of iterations =  3.8

     negative rho (up, down):  2.058E-04 0.000E+00

     total cpu time spent up to now is      559.1 secs

     total energy              =    -351.25159816 Ry
     Harris-Foulkes estimate   =    -351.25181500 Ry
     estimated scf accuracy    <       0.00049194 Ry

     iteration #  2     ecut=    32.00 Ry     beta= 0.50
     Davidson diagonalization with overlap
     ethr =  3.90E-07,  avg # of iterations =  2.0

     negative rho (up, down):  2.061E-04 0.000E+00

     total cpu time spent up to now is      589.6 secs

     total energy              =    -351.25168173 Ry
     Harris-Foulkes estimate   =    -351.25169391 Ry
     estimated scf accuracy    <       0.00005595 Ry

     iteration #  3     ecut=    32.00 Ry     beta= 0.50
     Davidson diagonalization with overlap
     ethr =  4.44E-08,  avg # of iterations =  2.0

     negative rho (up, down):  2.064E-04 0.000E+00

     total cpu time spent up to now is      619.7 secs

     total energy              =    -351.25168989 Ry
     Harris-Foulkes estimate   =    -351.25169148 Ry
     estimated scf accuracy    <       0.00001290 Ry

     iteration #  4     ecut=    32.00 Ry     beta= 0.50
     Davidson diagonalization with overlap
     ethr =  1.02E-08,  avg # of iterations =  2.0

     negative rho (up, down):  2.072E-04 0.000E+00

     total cpu time spent up to now is      649.2 secs

     total energy              =    -351.25169180 Ry
     Harris-Foulkes estimate   =    -351.25169248 Ry
     estimated scf accuracy    <       0.00000343 Ry

     iteration #  5     ecut=    32.00 Ry     beta= 0.50
     Davidson diagonalization with overlap
     ethr =  2.72E-09,  avg # of iterations =  2.2

     negative rho (up, down):  2.059E-04 0.000E+00

     total cpu time spent up to now is      677.6 secs

     End of self-consistent calculation

          k = 0.0000 0.0000 0.0000 ( 31971 PWs)   bands (ev):

   -21.9282 -20.4757 -20.4696 -20.0002 -19.9922 -19.5467 -18.5915 -18.5885
   -18.5749 -18.5724 -16.8453 -16.8169 -16.7208 -15.6497 -15.0901 -15.0856
   -15.0615 -15.0569 -13.2876 -13.2533 -13.1076 -13.1008 -13.0920 -13.0776
   -12.9647 -12.9552 -11.3686 -10.3003 -10.2726 -10.0228  -9.9302  -9.9294
    -9.6686  -9.3160  -9.1051  -9.0955  -9.0952  -9.0912  -8.9600  -8.9224
    -8.9040  -8.7591  -8.6217  -8.4030  -8.2392  -7.8301  -7.7282  -7.6059
    -7.6058  -7.0445  -6.8877  -6.7767  -6.2476  -6.2137  -6.1431  -6.0794
    -5.6372  -5.6227  -4.8992  -4.4615  -4.3543  -2.4175  -2.4110  -2.3416
    -2.3350  -0.7532  -0.0529   0.3954   0.4506   0.6922   1.3297   1.3487
     1.4044   1.5222   1.5808   1.9780

          k = 0.0000 0.0722 0.0000 ( 31929 PWs)   bands (ev):

   -21.8365 -21.1058 -19.9107 -19.9045 -19.6757 -19.5407 -19.2005 -19.1780
   -17.8238 -17.8102 -17.6030 -16.8193 -16.8170 -15.9494 -15.9405 -14.6596
   -14.5502 -14.5405 -13.7075 -13.6925 -13.2783 -13.2415 -12.4425 -12.4331
   -12.3829 -12.3634 -11.5636 -11.3611 -10.7574 -10.7331 -10.1397 -10.1378
    -9.9222  -9.6614  -9.3178  -9.1166  -8.8685  -8.6737  -8.6251  -8.6136
    -8.5865  -8.4380  -8.4248  -8.3537  -8.1695  -7.7928  -7.6366  -7.4353
    -7.1103  -6.9605  -6.9286  -6.8740  -6.6977  -6.6619  -5.9879  -5.8281
    -5.4411  -5.4086  -5.2855  -4.4588  -4.4280  -3.3732  -3.3610  -1.4101
    -1.4032  -0.1610   0.0866   0.2376   0.3446   0.6682   0.7118   0.8228
     1.3209   1.7935   1.8631   2.2156

          k = 0.0000-0.1443 0.0000 ( 31940 PWs)   bands (ev):

   -21.5664 -21.5570 -19.6724 -19.6492 -19.6367 -19.6333 -19.5054 -18.6981
   -18.6946 -16.9467 -16.9417 -16.9219 -16.9157 -16.7953 -16.7864 -14.1731
   -14.1698 -14.1649 -14.1510 -13.2912 -13.2429 -13.1658 -13.1538 -11.5748
   -11.5632 -11.5500 -11.5453 -11.3767 -11.3445 -11.3359 -11.3323 -11.3110
    -9.6561  -9.6281  -9.6075  -9.3181  -8.6970  -8.6180  -8.6062  -8.5919
    -8.3084  -8.2947  -8.2865  -8.2766  -7.6420  -7.3635  -7.3582  -7.3266
    -6.9884  -6.9671  -6.9588  -6.8122  -6.7418  -6.3637  -6.3288  -6.3152
    -6.2375  -4.7707  -4.7562  -4.4164  -4.4019  -4.1385  -4.1044  -0.5370
    -0.5311  -0.4630  -0.4474   0.3215   0.3970   0.5567   0.8897   1.1900
     1.2564   1.4198   1.5449   2.0807

          k = 0.0833 0.0000 0.0000 ( 31951 PWs)   bands (ev):

   -21.8059 -20.8340 -20.3563 -20.3497 -19.5656 -19.3986 -19.3836 -18.9299
   -17.5770 -17.5736 -16.8327 -16.8288 -16.6284 -16.2870 -15.8027 -15.5486
   -14.8971 -14.6403 -14.6402 -14.1474 -13.2498 -13.2424 -12.4223 -12.1819
   -11.7277 -11.5060 -11.5046 -11.3237 -10.1938  -9.9563  -9.9548  -9.8868
    -9.7228  -9.4671  -9.3132  -9.1731  -9.1715  -8.9961  -8.9946  -8.8779
    -8.7635  -8.7401  -8.6182  -8.2388  -8.1172  -8.0610  -8.0604  -7.6743
    -7.3058  -7.0793  -6.8581  -6.7602  -6.7405  -6.4723  -6.1104  -5.8833
    -5.3326  -5.2846  -4.7830  -4.4578  -4.3173  -3.6360  -3.3760  -1.4365
    -1.1055  -0.7812  -0.1916  -0.0871   0.1481   0.6041   0.6707   0.8669
     1.4929   1.7441   2.1238   2.1963

          k = 0.0833 0.0722 0.0000 ( 31951 PWs)   bands (ev):

   -21.7143 -20.9848 -20.7434 -20.0253 -19.5863 -19.5094 -18.8426 -18.6116
   -18.1541 -17.4931 -16.9125 -16.8245 -16.8082 -16.6163 -16.2506 -15.1576
   -14.6677 -14.5687 -14.0521 -13.9325 -13.2483 -13.2434 -12.2377 -12.2236
   -12.0071 -11.7923 -11.5279 -11.3172 -10.7424 -10.3576  -9.7863  -9.7434
    -9.7230  -9.6906  -9.3748  -9.3155  -9.1693  -8.9927  -8.8256  -8.7843
    -8.6772  -8.6534  -8.5335  -8.4879  -8.1715  -7.8313  -7.5340  -7.3600
    -7.3526  -6.9860  -6.7709  -6.7506  -6.4458  -6.4097  -6.1692  -6.0598
    -5.7818  -5.2128  -4.8388  -4.4721  -4.3960  -3.9539  -3.7393  -1.0855
    -0.7696  -0.6267  -0.1621   0.2539   0.3523   0.6096   0.8476   0.9952
     1.4504   1.5934   1.6841   1.9493

          k = 0.0833-0.1443 0.0000 ( 31876 PWs)   bands (ev):

   -21.4446 -21.4352 -20.4766 -20.4688 -19.5513 -18.5929 -18.5894 -18.5755
   -18.5697 -17.6784 -17.6740 -16.8331 -16.8197 -16.3248 -16.3144 -15.2698
   -15.2674 -13.2625 -13.2551 -13.1087 -13.0993 -13.0828 -13.0824 -13.0209
   -13.0126 -11.4087 -11.4077 -11.3059 -10.7176 -10.7130  -9.9379  -9.9330
    -9.7123  -9.4971  -9.4634  -9.3148  -9.1074  -9.0991  -9.0980  -9.0883
    -8.7744  -8.7053  -8.3305  -8.2772  -7.6062  -7.5929  -7.2860  -7.2671
    -7.1337  -6.7820  -6.7726  -6.6231  -6.6193  -6.2432  -6.1848  -6.1503
    -6.1135  -5.2310  -5.1584  -4.6002  -4.4434  -4.0737  -3.9848  -0.9693
    -0.9407   0.2451   0.3331   0.4651   0.5505   0.6034   1.0782   1.3344
     1.3346   1.3765   1.4216   1.4430

          k =-0.1667 0.0000 0.0000 ( 31854 PWs)   bands (ev):

   -21.4422 -21.4377 -20.0044 -19.9971 -19.9958 -19.9868 -19.5349 -17.6797
   -17.6731 -16.8679 -16.8406 -16.7291 -16.7138 -16.3317 -16.3129 -15.6559
   -15.6550 -15.2627 -15.2622 -13.2512 -13.2186 -13.0245 -13.0198 -11.4029
   -11.4010 -11.2701 -10.7301 -10.7089 -10.2970 -10.2904 -10.2703 -10.2614
    -9.7902  -9.4909  -9.4775  -9.3094  -8.9588  -8.9530  -8.9397  -8.9231
    -8.9220  -8.9022  -8.7933  -8.7224  -7.9469  -7.7332  -7.7314  -7.7207
    -7.3016  -7.2694  -6.9237  -6.7533  -6.6439  -6.6123  -6.6109  -5.3086
    -5.1147  -4.8808  -4.8806  -4.5746  -4.2464  -4.1660  -3.9469  -0.9906
    -0.9081  -0.7923  -0.7051   0.2882   0.4387   0.5638   0.6215   0.7496
     0.8613   1.3635   1.4071   2.1951

          k =-0.1667 0.0722 0.0000 ( 31908 PWs)   bands (ev):

   -21.3509 -21.3465 -20.6246 -20.6215 -19.5534 -19.1974 -19.1840 -17.5980
   -17.5911 -17.1672 -17.1665 -17.0156 -16.9977 -16.8167 -16.8072 -15.2546
   -15.2531 -14.3175 -14.3159 -13.5810 -13.5753 -13.2416 -13.2169 -11.5245
   -11.5240 -11.2693 -10.8333 -10.8302 -10.6269 -10.6057  -9.7926  -9.7606
    -9.7331  -9.3959  -9.3723  -9.3177  -9.2645  -9.2580  -9.2244  -9.2230
    -8.8083  -8.7873  -8.4681  -8.4379  -7.9195  -7.9076  -7.6602  -7.6344
    -7.2116  -6.8288  -6.7535  -6.7172  -6.6532  -6.6459  -6.6195  -5.2805
    -5.0896  -4.9707  -4.9187  -4.7843  -4.7239  -4.2423  -4.2348  -0.6416
    -0.5679  -0.3395  -0.2580   0.1365   0.2505   0.6437   0.6842   0.7119
     0.9768   1.4906   1.5207   1.6854

          k =-0.1667-0.1443 0.0000 ( 31784 PWs)   bands (ev):

   -21.0834 -21.0768 -21.0719 -21.0703 -19.5489 -18.2482 -18.2370 -18.2369
   -18.2348 -17.3639 -17.3569 -17.3561 -17.3478 -16.8277 -16.8171 -14.4708
   -14.4640 -14.4602 -14.4581 -13.2458 -13.2250 -12.9281 -12.9258 -12.9245
   -12.9145 -11.2628 -10.3164 -10.3076 -10.2971 -10.2849  -9.9477  -9.9389
    -9.9222  -9.9220  -9.7764  -9.3137  -9.1432  -9.1193  -9.0794  -9.0005
    -8.7074  -8.6361  -8.4022  -8.3929  -8.3812  -8.3726  -7.1094  -7.0735
    -7.0655  -7.0626  -7.0520  -6.7781  -6.6450  -5.9101  -5.7922  -5.7589
    -5.7088  -5.2305  -4.9857  -4.9596  -4.9419  -4.3545  -4.2493  -0.3546
    -0.2011  -0.1537  -0.1334   0.4520   0.6660   0.7604   1.0407   1.0708
     1.0731   1.1590   1.2843   1.3978

          k =-0.0833 0.0722 0.0000 ( 31951 PWs)   bands (ev):

   -21.7143 -20.9848 -20.7434 -20.0253 -19.5863 -19.5094 -18.8426 -18.6116
   -18.1541 -17.4931 -16.9125 -16.8247 -16.8081 -16.6163 -16.2506 -15.1576
   -14.6677 -14.5687 -14.0521 -13.9325 -13.2482 -13.2435 -12.2377 -12.2236
   -12.0071 -11.7923 -11.5279 -11.3172 -10.7424 -10.3576  -9.7863  -9.7434
    -9.7230  -9.6906  -9.3748  -9.3155  -9.1693  -8.9926  -8.8256  -8.7843
    -8.6775  -8.6534  -8.5333  -8.4879  -8.1715  -7.8313  -7.5340  -7.3600
    -7.3526  -6.9860  -6.7702  -6.7512  -6.4458  -6.4096  -6.1692  -6.0598
    -5.7818  -5.2128  -4.8387  -4.4723  -4.3959  -3.9538  -3.7393  -1.0855
    -0.7696  -0.6267  -0.1621   0.2539   0.3520   0.6103   0.8473   0.9952
     1.4503   1.5935   1.6840   1.9493

     the Fermi energy is    -2.3763 ev

!    total energy              =    -351.25169229 Ry
     Harris-Foulkes estimate   =    -351.25169261 Ry
     estimated scf accuracy    <       0.00000057 Ry

     The total energy is the sum of the following terms:

     one-electron contribution =   -4808.69282795 Ry
     hartree contribution      =    2424.28208241 Ry
     xc contribution           =    -112.32948467 Ry
     ewald contribution        =    2145.49130400 Ry
     smearing contrib. (-TS)   =      -0.00276609 Ry

     convergence has been achieved in   5 iterations

     Forces acting on atoms (cartesian axes, Ry/au):

     atom    1 type  1   force =     0.00158920   -0.00007171    0.00045672
     atom    2 type  1   force =     0.00081161    0.00164185    0.00076120
     atom    3 type  1   force =    -0.00260384   -0.00214957   -0.00257962
     atom    4 type  1   force =     0.00157276    0.00128282   -0.01013492
     atom    5 type  1   force =     0.00157295   -0.00128246   -0.01013505
     atom    6 type  1   force =    -0.00260304    0.00214966   -0.00257994
     atom    7 type  1   force =     0.00081152   -0.00164150    0.00076122
     atom    8 type  1   force =     0.00158894    0.00007163    0.00045653
     atom    9 type  1   force =    -0.00158894   -0.00007163    0.00045653
     atom   10 type  1   force =    -0.00000023   -0.00273597   -0.00309992
     atom   11 type  1   force =     0.00000064    0.00192810   -0.01008703
     atom   12 type  1   force =    -0.00157295    0.00128246   -0.01013505
     atom   13 type  1   force =    -0.00157276   -0.00128282   -0.01013492
     atom   14 type  1   force =    -0.00000064   -0.00192810   -0.01008703
     atom   15 type  1   force =     0.00000023    0.00273597   -0.00309992
     atom   16 type  1   force =    -0.00158920    0.00007171    0.00045672
     atom   17 type  1   force =    -0.00000064    0.00011634    0.00130945
     atom   18 type  1   force =    -0.00081152    0.00164150    0.00076122
     atom   19 type  1   force =     0.00260304   -0.00214966   -0.00257994
     atom   20 type  1   force =     0.00000062   -0.00010715   -0.00014847
     atom   21 type  1   force =    -0.00000062    0.00010715   -0.00014847
     atom   22 type  1   force =     0.00260384    0.00214957   -0.00257962
     atom   23 type  1   force =    -0.00081161   -0.00164185    0.00076120
     atom   24 type  1   force =     0.00000064   -0.00011634    0.00130945
     atom   25 type  1   force =    -0.00276645    0.00366505    0.01126281
     atom   26 type  1   force =     0.00278007    0.00334534    0.01126202
     atom   27 type  1   force =     0.00473923    0.00017393    0.01128448
     atom   28 type  1   force =     0.00276645   -0.00366505    0.01126281
     atom   29 type  1   force =    -0.00278007   -0.00334534    0.01126202
     atom   30 type  1   force =    -0.00473923   -0.00017393    0.01128448
     atom   31 type  2   force =     0.00069367   -0.00102950    0.00037291
     atom   32 type  2   force =    -0.00070626   -0.00103192    0.00037294
     atom   33 type  2   force =    -0.00065939   -0.00001081    0.00046468
     atom   34 type  2   force =    -0.00069367    0.00102950    0.00037291
     atom   35 type  2   force =     0.00070626    0.00103192    0.00037294
     atom   36 type  2   force =     0.00065939    0.00001081    0.00046468

     Total force =     0.040866     Total SCF correction =     0.002039

     number of scf cycles    =   3
     number of bfgs steps    =   2

     energy   old            =    -351.2496266750 Ry
     energy   new            =    -351.2516922911 Ry

     CASE: energy  _new < energy  _old

     new trust radius        =       0.0232604348 bohr
     new conv_thr            =       0.0000010000 Ry


ATOMIC_POSITIONS (angstrom)
C        1.230047705   0.000857543   0.001373094
C        0.001660135   0.710172835   0.001594791
C        0.002928918   2.132575103  -0.005104081
C        1.230335894   2.840590650  -0.024759272
C        1.230335643   4.260816958  -0.024760236
C        0.002928361   4.968832765  -0.005104904
C        0.001660478   6.391234496   0.001594179
C        1.230048075   7.100550278   0.001372900
C        3.689951925   0.000858033   0.001372900
C        2.460000168   0.713704611  -0.005640505
C        2.459999311   2.131016581  -0.025137027
C        3.689664357   2.840591353  -0.024760236
C        3.689664106   4.260817662  -0.024759272
C        2.460000689   4.970391730  -0.025137027
C        2.459999832   6.387703700  -0.005640505
C        3.689952295   7.100550768   0.001373094
C        6.150000347   0.000104546   0.001703316
C        4.918339522   0.710173815   0.001594179
C        4.917071639   2.132575546  -0.005104904
C        6.149999517   2.841087666   0.001229828
C        6.150000483   4.260320645   0.001229828
C        4.917071082   4.968833208  -0.005104081
C        4.918339865   6.391235476   0.001594791
C        6.149999653   7.101303765   0.001703316
C        3.157733011   2.342033037   3.027625351
C        1.762307519   2.342249466   3.027623445
C        1.066413990   3.550626647   3.027650906
C        1.762266989   4.759375274   3.027625351
C        3.157692481   4.759158845   3.027623445
C        3.853586010   3.550781664   3.027650906
H        3.699962935   1.403148337   2.999506704
H        1.220044876   1.403237979   2.999505969
H       -0.017293760   3.550664935   2.999725541
H        1.220037065   5.698259974   2.999506704
H        3.699955124   5.698170332   2.999505969
H        4.937293760   3.550743376   2.999725541



     Writing output data file batch_graph+benzene.save/
     NEW-OLD atomic charge density approx. for the potential

     negative rho (up, down):  2.071E-04 0.000E+00

     total cpu time spent up to now is      692.5 secs

     Self-consistent Calculation

     iteration #  1     ecut=    32.00 Ry     beta= 0.50
     Davidson diagonalization with overlap
     ethr =  1.00E-06,  avg # of iterations =  4.0

     negative rho (up, down):  2.066E-04 0.000E+00

     total cpu time spent up to now is      745.0 secs

     total energy              =    -351.25420572 Ry
     Harris-Foulkes estimate   =    -351.25468902 Ry
     estimated scf accuracy    <       0.00109175 Ry

     iteration #  2     ecut=    32.00 Ry     beta= 0.50
     Davidson diagonalization with overlap
     ethr =  8.66E-07,  avg # of iterations =  2.0

     negative rho (up, down):  2.076E-04 0.000E+00

     total cpu time spent up to now is      775.2 secs

     total energy              =    -351.25438844 Ry
     Harris-Foulkes estimate   =    -351.25442429 Ry
     estimated scf accuracy    <       0.00013885 Ry

     iteration #  3     ecut=    32.00 Ry     beta= 0.50
     Davidson diagonalization with overlap
     ethr =  1.10E-07,  avg # of iterations =  2.0

     negative rho (up, down):  2.065E-04 0.000E+00

     total cpu time spent up to now is      805.5 secs

     total energy              =    -351.25440899 Ry
     Harris-Foulkes estimate   =    -351.25441705 Ry
     estimated scf accuracy    <       0.00003761 Ry

     iteration #  4     ecut=    32.00 Ry     beta= 0.50
     Davidson diagonalization with overlap
     ethr =  2.98E-08,  avg # of iterations =  2.2

     negative rho (up, down):  2.083E-04 0.000E+00

     total cpu time spent up to now is      834.4 secs

     total energy              =    -351.25441543 Ry
     Harris-Foulkes estimate   =    -351.25441781 Ry
     estimated scf accuracy    <       0.00001105 Ry

     iteration #  5     ecut=    32.00 Ry     beta= 0.50
     Davidson diagonalization with overlap
     ethr =  8.77E-09,  avg # of iterations =  2.2

     negative rho (up, down):  2.075E-04 0.000E+00

     total cpu time spent up to now is      862.8 secs

     total energy              =    -351.25441762 Ry
     Harris-Foulkes estimate   =    -351.25441776 Ry
     estimated scf accuracy    <       0.00000113 Ry

     iteration #  6     ecut=    32.00 Ry     beta= 0.50
     Davidson diagonalization with overlap
     ethr =  8.94E-10,  avg # of iterations =  2.2

     negative rho (up, down):  2.063E-04 0.000E+00

     total cpu time spent up to now is      892.2 secs

     End of self-consistent calculation

          k = 0.0000 0.0000 0.0000 ( 31971 PWs)   bands (ev):

   -21.9347 -20.4811 -20.4769 -20.0063 -19.9984 -19.5529 -18.5970 -18.5955
   -18.5810 -18.5807 -16.8470 -16.8192 -16.7289 -15.6572 -15.0952 -15.0901
   -15.0695 -15.0671 -13.2878 -13.2559 -13.1117 -13.1083 -13.0974 -13.0888
   -12.9708 -12.9625 -11.3742 -10.3045 -10.2809 -10.0264  -9.9379  -9.9367
    -9.6696  -9.3173  -9.1094  -9.1034  -9.1031  -9.1007  -8.9664  -8.9288
    -8.9135  -8.7644  -8.6226  -8.4004  -8.2425  -7.8324  -7.7321  -7.6127
    -7.6107  -7.0618  -6.8817  -6.7794  -6.2460  -6.2149  -6.1505  -6.0932
    -5.6427  -5.6313  -4.8975  -4.4709  -4.3698  -2.4201  -2.4144  -2.3529
    -2.3477  -0.7554  -0.0487   0.4051   0.4530   0.6878   1.3239   1.3432
     1.3920   1.5039   1.5818   1.9811

          k = 0.0000 0.0722 0.0000 ( 31929 PWs)   bands (ev):

   -21.8429 -21.1122 -19.9168 -19.9105 -19.6814 -19.5473 -19.2066 -19.1860
   -17.8301 -17.8170 -17.6095 -16.8229 -16.8192 -15.9566 -15.9474 -14.6669
   -14.5560 -14.5484 -13.7129 -13.7002 -13.2793 -13.2448 -12.4489 -12.4404
   -12.3882 -12.3717 -11.5712 -11.3668 -10.7622 -10.7415 -10.1475 -10.1444
    -9.9251  -9.6627  -9.3189  -9.1199  -8.8749  -8.6764  -8.6270  -8.6194
    -8.5952  -8.4439  -8.4339  -8.3619  -8.1763  -7.7896  -7.6396  -7.4404
    -7.1177  -6.9668  -6.9322  -6.8696  -6.6993  -6.6807  -5.9965  -5.8344
    -5.4380  -5.4100  -5.2936  -4.4681  -4.4401  -3.3825  -3.3711  -1.4158
    -1.4098  -0.1579   0.0905   0.2442   0.3441   0.6555   0.7016   0.8182
     1.3250   1.7935   1.8602   2.2149

          k = 0.0000-0.1443 0.0000 ( 31940 PWs)   bands (ev):

   -21.5722 -21.5641 -19.6761 -19.6552 -19.6429 -19.6388 -19.5155 -18.7058
   -18.7005 -16.9520 -16.9448 -16.9271 -16.9225 -16.8004 -16.7936 -14.1791
   -14.1749 -14.1699 -14.1616 -13.2915 -13.2462 -13.1720 -13.1630 -11.5799
   -11.5683 -11.5586 -11.5531 -11.3819 -11.3507 -11.3440 -11.3382 -11.3201
    -9.6573  -9.6281  -9.6133  -9.3193  -8.7000  -8.6186  -8.6110  -8.6000
    -8.3123  -8.3021  -8.2973  -8.2853  -7.6377  -7.3648  -7.3635  -7.3310
    -6.9974  -6.9746  -6.9658  -6.8217  -6.7435  -6.3639  -6.3347  -6.3217
    -6.2481  -4.7659  -4.7515  -4.4207  -4.4086  -4.1592  -4.1265  -0.5352
    -0.5299  -0.4709  -0.4579   0.3238   0.4017   0.5545   0.8923   1.1849
     1.2570   1.4123   1.5312   2.0803

          k = 0.0833 0.0000 0.0000 ( 31951 PWs)   bands (ev):

   -21.8123 -20.8404 -20.3616 -20.3570 -19.5697 -19.4059 -19.3913 -18.9367
   -17.5828 -17.5809 -16.8350 -16.8309 -16.6360 -16.2942 -15.8094 -15.5561
   -14.9048 -14.6474 -14.6463 -14.1538 -13.2510 -13.2456 -12.4296 -12.1883
   -11.7341 -11.5123 -11.5121 -11.3298 -10.2016  -9.9641  -9.9633  -9.8888
    -9.7230  -9.4736  -9.3144  -9.1798  -9.1792  -9.0031  -9.0025  -8.8797
    -8.7694  -8.7456  -8.6168  -8.2392  -8.1209  -8.0672  -8.0670  -7.6828
    -7.3088  -7.0845  -6.8724  -6.7562  -6.7419  -6.4827  -6.1165  -5.8919
    -5.3318  -5.2868  -4.7822  -4.4683  -4.3321  -3.6473  -3.3856  -1.4429
    -1.1107  -0.7846  -0.1877  -0.0892   0.1516   0.5990   0.6616   0.8627
     1.4956   1.7457   2.1210   2.1947

          k = 0.0833 0.0722 0.0000 ( 31951 PWs)   bands (ev):

   -21.7207 -20.9912 -20.7498 -20.0315 -19.5903 -19.5178 -18.8494 -18.6184
   -18.1608 -17.4996 -16.9163 -16.8269 -16.8136 -16.6239 -16.2578 -15.1641
   -14.6741 -14.5760 -14.0594 -13.9390 -13.2497 -13.2465 -12.2443 -12.2307
   -12.0135 -11.7995 -11.5354 -11.3233 -10.7494 -10.3646  -9.7897  -9.7495
    -9.7251  -9.6970  -9.3813  -9.3166  -9.1761  -8.9962  -8.8264  -8.7917
    -8.6800  -8.6594  -8.5347  -8.4959  -8.1790  -7.8331  -7.5419  -7.3651
    -7.3561  -7.0030  -6.7728  -6.7463  -6.4538  -6.4146  -6.1740  -6.0673
    -5.7864  -5.2133  -4.8368  -4.4803  -4.4074  -3.9690  -3.7519  -1.0901
    -0.7730  -0.6304  -0.1624   0.2578   0.3569   0.6042   0.8350   0.9906
     1.4546   1.5958   1.6751   1.9405

          k = 0.0833-0.1443 0.0000 ( 31876 PWs)   bands (ev):

   -21.4504 -21.4423 -20.4824 -20.4758 -19.5568 -18.5969 -18.5962 -18.5830
   -18.5782 -17.6859 -17.6797 -16.8348 -16.8232 -16.3312 -16.3230 -15.2770
   -15.2730 -13.2626 -13.2573 -13.1159 -13.1038 -13.0913 -13.0909 -13.0275
   -13.0222 -11.4146 -11.4141 -11.3127 -10.7239 -10.7212  -9.9449  -9.9396
    -9.7126  -9.4970  -9.4693  -9.3160  -9.1126  -9.1057  -9.1057  -9.0967
    -8.7747  -8.7086  -8.3289  -8.2824  -7.6139  -7.6005  -7.2944  -7.2746
    -7.1474  -6.7839  -6.7682  -6.6296  -6.6265  -6.2413  -6.1879  -6.1572
    -6.1236  -5.2297  -5.1639  -4.6014  -4.4534  -4.0874  -4.0036  -0.9702
    -0.9465   0.2562   0.3350   0.4664   0.5458   0.5947   1.0801   1.3270
     1.3279   1.3712   1.4202   1.4303

          k =-0.1667 0.0000 0.0000 ( 31854 PWs)   bands (ev):

   -21.4468 -21.4460 -20.0068 -20.0048 -20.0036 -19.9936 -19.5422 -17.6856
   -17.6802 -16.8681 -16.8423 -16.7376 -16.7223 -16.3347 -16.3238 -15.6627
   -15.6610 -15.2705 -15.2696 -13.2538 -13.2200 -13.0311 -13.0269 -11.4103
   -11.4082 -11.2769 -10.7361 -10.7157 -10.3020 -10.2964 -10.2783 -10.2728
    -9.7895  -9.4918  -9.4819  -9.3108  -8.9637  -8.9612  -8.9447  -8.9306
    -8.9281  -8.9116  -8.7922  -8.7273  -7.9437  -7.7358  -7.7330  -7.7275
    -7.3049  -7.2781  -6.9494  -6.7550  -6.6397  -6.6214  -6.6187  -5.3010
    -5.1223  -4.8828  -4.8773  -4.5797  -4.2693  -4.1684  -3.9689  -0.9882
    -0.9197  -0.7906  -0.7099   0.2911   0.4323   0.5663   0.6190   0.7328
     0.8638   1.3591   1.4036   2.1971

          k =-0.1667 0.0722 0.0000 ( 31908 PWs)   bands (ev):

   -21.3555 -21.3548 -20.6296 -20.6292 -19.5586 -19.2020 -19.1933 -17.6038
   -17.5981 -17.1751 -17.1707 -17.0196 -17.0047 -16.8217 -16.8121 -15.2612
   -15.2594 -14.3245 -14.3235 -13.5868 -13.5821 -13.2455 -13.2182 -11.5319
   -11.5318 -11.2755 -10.8403 -10.8380 -10.6330 -10.6125  -9.7919  -9.7669
    -9.7397  -9.3966  -9.3772  -9.3185  -9.2705  -9.2663  -9.2316  -9.2310
    -8.8077  -8.7912  -8.4690  -8.4413  -7.9260  -7.9153  -7.6647  -7.6435
    -7.2191  -6.8335  -6.7550  -6.7302  -6.6592  -6.6553  -6.6184  -5.2716
    -5.0929  -4.9702  -4.9219  -4.7912  -4.7275  -4.2656  -4.2571  -0.6388
    -0.5687  -0.3395  -0.2684   0.1373   0.2453   0.6457   0.6788   0.6965
     0.9795   1.4852   1.5169   1.6921

          k =-0.1667-0.1443 0.0000 ( 31784 PWs)   bands (ev):

   -21.0866 -21.0852 -21.0784 -21.0779 -19.5545 -18.2525 -18.2455 -18.2437
   -18.2418 -17.3689 -17.3631 -17.3626 -17.3558 -16.8314 -16.8208 -14.4777
   -14.4713 -14.4661 -14.4641 -13.2492 -13.2254 -12.9356 -12.9317 -12.9313
   -12.9252 -11.2692 -10.3210 -10.3151 -10.3023 -10.2930  -9.9542  -9.9479
    -9.9291  -9.9286  -9.7767  -9.3150  -9.1385  -9.1241  -9.0868  -9.0043
    -8.7066  -8.6391  -8.4061  -8.3990  -8.3887  -8.3831  -7.1256  -7.0817
    -7.0729  -7.0669  -7.0625  -6.7798  -6.6411  -5.9047  -5.7936  -5.7633
    -5.7214  -5.2210  -4.9910  -4.9653  -4.9499  -4.3723  -4.2727  -0.3435
    -0.2020  -0.1621  -0.1392   0.4631   0.6525   0.7624   1.0375   1.0613
     1.0617   1.1607   1.2648   1.4015

          k =-0.0833 0.0722 0.0000 ( 31951 PWs)   bands (ev):

   -21.7207 -20.9912 -20.7498 -20.0315 -19.5903 -19.5178 -18.8494 -18.6184
   -18.1608 -17.4996 -16.9162 -16.8279 -16.8129 -16.6239 -16.2578 -15.1641
   -14.6741 -14.5760 -14.0594 -13.9390 -13.2495 -13.2467 -12.2443 -12.2307
   -12.0135 -11.7995 -11.5354 -11.3233 -10.7494 -10.3646  -9.7898  -9.7495
    -9.7251  -9.6970  -9.3813  -9.3166  -9.1761  -8.9961  -8.8263  -8.7917
    -8.6802  -8.6594  -8.5346  -8.4959  -8.1790  -7.8331  -7.5419  -7.3651
    -7.3561  -7.0030  -6.7719  -6.7472  -6.4538  -6.4145  -6.1741  -6.0673
    -5.7864  -5.2133  -4.8365  -4.4811  -4.4070  -3.9689  -3.7519  -1.0901
    -0.7730  -0.6303  -0.1625   0.2577   0.3563   0.6056   0.8344   0.9906
     1.4545   1.5958   1.6751   1.9405

     the Fermi energy is    -2.3837 ev

!    total energy              =    -351.25441782 Ry
     Harris-Foulkes estimate   =    -351.25441781 Ry
     estimated scf accuracy    <       0.00000006 Ry

     The total energy is the sum of the following terms:

     one-electron contribution =   -4802.58792399 Ry
     hartree contribution      =    2421.20250374 Ry
     xc contribution           =    -112.33255182 Ry
     ewald contribution        =    2142.46633257 Ry
     smearing contrib. (-TS)   =      -0.00277832 Ry

     convergence has been achieved in   6 iterations

     Forces acting on atoms (cartesian axes, Ry/au):

     atom    1 type  1   force =     0.00109307   -0.00049856    0.00021684
     atom    2 type  1   force =    -0.00058933    0.00107903    0.00034536
     atom    3 type  1   force =    -0.00239201   -0.00170624   -0.00257792
     atom    4 type  1   force =     0.00062236    0.00099009   -0.00859868
     atom    5 type  1   force =     0.00062427   -0.00098871   -0.00859874
     atom    6 type  1   force =    -0.00238975    0.00170602   -0.00257815
     atom    7 type  1   force =    -0.00059046   -0.00107809    0.00034540
     atom    8 type  1   force =     0.00109176    0.00049877    0.00021679
     atom    9 type  1   force =    -0.00109176   -0.00049877    0.00021679
     atom   10 type  1   force =    -0.00000134   -0.00248226   -0.00315050
     atom   11 type  1   force =     0.00000251    0.00049993   -0.00868388
     atom   12 type  1   force =    -0.00062427    0.00098871   -0.00859874
     atom   13 type  1   force =    -0.00062236   -0.00099009   -0.00859868
     atom   14 type  1   force =    -0.00000251   -0.00049993   -0.00868388
     atom   15 type  1   force =     0.00000134    0.00248226   -0.00315050
     atom   16 type  1   force =    -0.00109307    0.00049856    0.00021684
     atom   17 type  1   force =    -0.00000133    0.00051379    0.00185166
     atom   18 type  1   force =     0.00059046    0.00107809    0.00034540
     atom   19 type  1   force =     0.00238975   -0.00170602   -0.00257815
     atom   20 type  1   force =     0.00000201   -0.00014308   -0.00094143
     atom   21 type  1   force =    -0.00000201    0.00014308   -0.00094143
     atom   22 type  1   force =     0.00239201    0.00170624   -0.00257792
     atom   23 type  1   force =     0.00058933   -0.00107903    0.00034536
     atom   24 type  1   force =     0.00000133   -0.00051379    0.00185166
     atom   25 type  1   force =    -0.00324162    0.00396683    0.00959313
     atom   26 type  1   force =     0.00331432    0.00327710    0.00958806
     atom   27 type  1   force =     0.00421092    0.00041336    0.00960148
     atom   28 type  1   force =     0.00324162   -0.00396683    0.00959313
     atom   29 type  1   force =    -0.00331432   -0.00327710    0.00958806
     atom   30 type  1   force =    -0.00421092   -0.00041336    0.00960148
     atom   31 type  2   force =     0.00148275   -0.00228987    0.00109540
     atom   32 type  2   force =    -0.00143303   -0.00216811    0.00109896
     atom   33 type  2   force =    -0.00220165   -0.00001918    0.00117621
     atom   34 type  2   force =    -0.00148275    0.00228987    0.00109540
     atom   35 type  2   force =     0.00143303    0.00216811    0.00109896
     atom   36 type  2   force =     0.00220165    0.00001918    0.00117621

     Total force =     0.036017     Total SCF correction =     0.000238

     number of scf cycles    =   4
     number of bfgs steps    =   3

     energy   old            =    -351.2516922911 Ry
     energy   new            =    -351.2544178201 Ry

     CASE: energy  _new < energy  _old

     new trust radius        =       0.0348906522 bohr
     new conv_thr            =       0.0000009601 Ry


ATOMIC_POSITIONS (angstrom)
C        1.230565428   0.000775040   0.002054991
C        0.001503858   0.710771580   0.002366561
C        0.002911133   2.132764534  -0.008987377
C        1.230273474   2.840752597  -0.041262704
C        1.230274087   4.260655317  -0.041263993
C        0.002911343   4.968643062  -0.008988568
C        0.001503678   6.390635898   0.002365626
C        1.230565347   7.100632629   0.002054757
C        3.689434653   0.000775682   0.002054757
C        2.459999557   0.713746231  -0.010114452
C        2.460000175   2.130993322  -0.041798595
C        3.689725913   2.840752994  -0.041263993
C        3.689726526   4.260655714  -0.041262704
C        2.459999825   4.970414989  -0.041798595
C        2.460000443   6.387662080  -0.010114452
C        3.689434572   7.100633271   0.002054991
C        6.149999962   0.000617071   0.003787031
C        4.918496322   0.710772413   0.002365626
C        4.917088657   2.132765249  -0.008988568
C        6.150000165   2.840926815   0.000959763
C        6.149999835   4.260481496   0.000959763
C        4.917088867   4.968643777  -0.008987377
C        4.918496142   6.390636731   0.002366561
C        6.150000038   7.100791240   0.003787031
C        3.156771904   2.342865541   3.045999085
C        1.763231607   2.342814941   3.045992028
C        1.068068428   3.550729045   3.046039685
C        1.763228096   4.758542770   3.045999085
C        3.156768393   4.758593370   3.045992028
C        3.851931572   3.550679266   3.046039685
H        3.699335414   1.404469768   3.000142317
H        1.220638356   1.404514038   3.000143997
H       -0.014611229   3.550656803   3.000509847
H        1.220664586   5.696938544   3.000142317
H        3.699361644   5.696894273   3.000143997
H        4.934611229   3.550751508   3.000509847



     Writing output data file batch_graph+benzene.save/
     NEW-OLD atomic charge density approx. for the potential

     negative rho (up, down):  2.113E-04 0.000E+00

     total cpu time spent up to now is      907.1 secs

     Self-consistent Calculation

     iteration #  1     ecut=    32.00 Ry     beta= 0.50
     Davidson diagonalization with overlap
     ethr =  1.00E-06,  avg # of iterations =  4.0

     negative rho (up, down):  2.096E-04 0.000E+00

     total cpu time spent up to now is      965.2 secs

     total energy              =    -351.25731923 Ry
     Harris-Foulkes estimate   =    -351.25839407 Ry
     estimated scf accuracy    <       0.00244573 Ry

     iteration #  2     ecut=    32.00 Ry     beta= 0.50
     Davidson diagonalization with overlap
     ethr =  1.94E-06,  avg # of iterations =  3.2

     negative rho (up, down):  2.108E-04 0.000E+00

     total cpu time spent up to now is      996.2 secs

     total energy              =    -351.25772702 Ry
     Harris-Foulkes estimate   =    -351.25779359 Ry
     estimated scf accuracy    <       0.00029151 Ry

     iteration #  3     ecut=    32.00 Ry     beta= 0.50
     Davidson diagonalization with overlap
     ethr =  2.31E-07,  avg # of iterations =  3.4

     negative rho (up, down):  2.112E-04 0.000E+00

     total cpu time spent up to now is     1026.4 secs

     total energy              =    -351.25776995 Ry
     Harris-Foulkes estimate   =    -351.25777817 Ry
     estimated scf accuracy    <       0.00006566 Ry

     iteration #  4     ecut=    32.00 Ry     beta= 0.50
     Davidson diagonalization with overlap
     ethr =  5.21E-08,  avg # of iterations =  2.0

     negative rho (up, down):  2.148E-04 0.000E+00

     total cpu time spent up to now is     1055.7 secs

     total energy              =    -351.25777945 Ry
     Harris-Foulkes estimate   =    -351.25778244 Ry
     estimated scf accuracy    <       0.00001564 Ry

     iteration #  5     ecut=    32.00 Ry     beta= 0.50
     Davidson diagonalization with overlap
     ethr =  1.24E-08,  avg # of iterations =  2.1

     negative rho (up, down):  2.112E-04 0.000E+00

     total cpu time spent up to now is     1084.4 secs

     total energy              =    -351.25778266 Ry
     Harris-Foulkes estimate   =    -351.25778313 Ry
     estimated scf accuracy    <       0.00000258 Ry

     iteration #  6     ecut=    32.00 Ry     beta= 0.50
     Davidson diagonalization with overlap
     ethr =  2.05E-09,  avg # of iterations =  2.1

     negative rho (up, down):  2.084E-04 0.000E+00

     total cpu time spent up to now is     1112.7 secs

     End of self-consistent calculation

          k = 0.0000 0.0000 0.0000 ( 31971 PWs)   bands (ev):

   -21.9435 -20.4887 -20.4868 -20.0141 -20.0078 -19.5675 -18.6057 -18.6026
   -18.5923 -18.5905 -16.8519 -16.8211 -16.7411 -15.6674 -15.1018 -15.0977
   -15.0810 -15.0800 -13.2888 -13.2529 -13.1202 -13.1165 -13.1074 -13.1013
   -12.9792 -12.9725 -11.3782 -10.3111 -10.2923 -10.0322  -9.9495  -9.9449
    -9.6576  -9.3241  -9.1174  -9.1142  -9.1142  -9.1119  -8.9753  -8.9383
    -8.9263  -8.7692  -8.6211  -8.3971  -8.2466  -7.8366  -7.7377  -7.6222
    -7.6167  -7.0911  -6.8784  -6.7735  -6.2448  -6.2188  -6.1583  -6.1106
    -5.6502  -5.6432  -4.8954  -4.4841  -4.3967  -2.4242  -2.4205  -2.3679
    -2.3643  -0.7585  -0.0456   0.4228   0.4518   0.6811   1.3137   1.3326
     1.3763   1.4796   1.5814   1.9848

          k = 0.0000 0.0722 0.0000 ( 31929 PWs)   bands (ev):

   -21.8517 -21.1211 -19.9245 -19.9195 -19.6896 -19.5620 -19.2145 -19.1974
   -17.8381 -17.8272 -17.6185 -16.8311 -16.8212 -15.9657 -15.9578 -14.6769
   -14.5645 -14.5587 -13.7206 -13.7107 -13.2815 -13.2428 -12.4576 -12.4505
   -12.3960 -12.3828 -11.5818 -11.3708 -10.7694 -10.7528 -10.1573 -10.1545
    -9.9290  -9.6510  -9.3255  -9.1242  -8.8839  -8.6778  -8.6290  -8.6283
    -8.6040  -8.4529  -8.4456  -8.3735  -8.1857  -7.7865  -7.6429  -7.4479
    -7.1326  -6.9756  -6.9343  -6.8691  -6.7064  -6.6938  -6.0082  -5.8435
    -5.4352  -5.4107  -5.3035  -4.4814  -4.4629  -3.3949  -3.3853  -1.4242
    -1.4190  -0.1541   0.0937   0.2555   0.3420   0.6344   0.6883   0.8114
     1.3288   1.7903   1.8560   2.2012

          k = 0.0000-0.1443 0.0000 ( 31940 PWs)   bands (ev):

   -21.5801 -21.5738 -19.6821 -19.6607 -19.6530 -19.6489 -19.5333 -18.7156
   -18.7093 -16.9562 -16.9497 -16.9364 -16.9340 -16.8062 -16.8058 -14.1854
   -14.1847 -14.1791 -14.1734 -13.2926 -13.2441 -13.1812 -13.1752 -11.5861
   -11.5772 -11.5703 -11.5640 -11.3863 -11.3592 -11.3539 -11.3471 -11.3313
    -9.6456  -9.6284  -9.6212  -9.3259  -8.7018  -8.6193  -8.6175  -8.6088
    -8.3207  -8.3113  -8.3096  -8.2979  -7.6333  -7.3711  -7.3648  -7.3395
    -7.0092  -6.9948  -6.9744  -6.8347  -6.7362  -6.3650  -6.3419  -6.3319
    -6.2617  -4.7616  -4.7421  -4.4295  -4.4202  -4.1869  -4.1590  -0.5367
    -0.5326  -0.4786  -0.4685   0.3260   0.4045   0.5548   0.8924   1.1778
     1.2570   1.4016   1.5104   2.0760

          k = 0.0833 0.0000 0.0000 ( 31951 PWs)   bands (ev):

   -21.8211 -20.8491 -20.3692 -20.3670 -19.5811 -19.4159 -19.4022 -18.9460
   -17.5909 -17.5907 -16.8412 -16.8329 -16.6468 -16.3041 -15.8186 -15.5663
   -14.9153 -14.6571 -14.6547 -14.1627 -13.2531 -13.2438 -12.4394 -12.1970
   -11.7431 -11.5227 -11.5213 -11.3343 -10.2125  -9.9757  -9.9751  -9.8909
    -9.7109  -9.4828  -9.3211  -9.1898  -9.1894  -9.0136  -9.0128  -8.8811
    -8.7781  -8.7503  -8.6132  -8.2395  -8.1256  -8.0768  -8.0755  -7.6947
    -7.3158  -7.0912  -6.8956  -6.7547  -6.7346  -6.4958  -6.1254  -5.9037
    -5.3303  -5.2896  -4.7815  -4.4833  -4.3579  -3.6628  -3.3986  -1.4525
    -1.1182  -0.7890  -0.1814  -0.0924   0.1543   0.5870   0.6521   0.8563
     1.4985   1.7463   2.1143   2.1926

[...]
     atom   36 type  2   force =     0.00002462   -0.00000095    0.00000958

     Total force =     0.000417     Total SCF correction =     0.000163
     SCF correction compared to forces is large: reduce conv_thr to get better values

     number of scf cycles    =  41
     number of bfgs steps    =  40

     energy   old            =    -351.2809442823 Ry
     energy   new            =    -351.2809448640 Ry

     CASE: energy  _new < energy  _old

     new trust radius        =       0.0002057148 bohr
     new conv_thr            =       0.0000000100 Ry


ATOMIC_POSITIONS (angstrom)
C        1.230298494   0.000350025  -0.178404699
C        0.000342288   0.710423624  -0.175964772
C        0.000726346   2.131115204  -0.192263106
C        1.230364281   2.840714715  -0.213739905
C        1.230360181   4.260691419  -0.213739929
C        0.000720297   4.970293091  -0.192263307
C        0.000353201   6.390980799  -0.175965468
C        1.230300435   7.101058667  -0.178404782
C        3.689699565   0.000349644  -0.178404782
C        2.459999383   0.711118042  -0.190860750
C        2.459993669   2.131014063  -0.212871282
C        3.689639819   2.840716892  -0.213739929
C        3.689635719   4.260693596  -0.213739905
C        2.460006331   4.970394248  -0.212871282
C        2.460000617   6.390290269  -0.190860750
C        3.689701506   7.101058286  -0.178404699
C        6.150003208   0.000309084  -0.167410990
C        4.919646799   0.710427512  -0.175965468
C        4.919279703   2.131115220  -0.192263307
C        6.149992450   2.840542708  -0.190171886
C        6.150007550   4.260865603  -0.190171886
C        4.919273654   4.970293107  -0.192263106
C        4.919657712   6.390984687  -0.175964772
C        6.149996792   7.101099227  -0.167410990
C        3.157485758   2.341604673   3.385707286
C        1.762493650   2.341612192   3.385706071
C        1.066852723   3.550708184   3.385986341
C        1.762514242   4.759803638   3.385707286
C        3.157506350   4.759796119   3.385706071
C        3.853147277   3.550700127   3.385986341
H        3.701939976   1.401038693   3.374519246
H        1.218023495   1.401048049   3.374509564
H       -0.018987721   3.550713009   3.375632371
H        1.218060024   5.700369618   3.374519246
H        3.701976505   5.700360262   3.374509564
H        4.938987721   3.550695302   3.375632371



     Writing output data file batch_graph+benzene.save/
     NEW-OLD atomic charge density approx. for the potential

     negative rho (up, down):  1.977E-04 0.000E+00

     total cpu time spent up to now is     8871.2 secs

     Self-consistent Calculation

     iteration #  1     ecut=    32.00 Ry     beta= 0.50
     Davidson diagonalization with overlap
     ethr =  1.00E-06,  avg # of iterations =  2.0

     Threshold (ethr) on eigenvalues was too large:
     Diagonalizing with lowered threshold

     Davidson diagonalization with overlap
     ethr =  4.47E-11,  avg # of iterations =  3.7

     negative rho (up, down):  1.977E-04 0.000E+00

     total cpu time spent up to now is     8933.5 secs

     total energy              =    -351.28094496 Ry
     Harris-Foulkes estimate   =    -351.28094504 Ry
     estimated scf accuracy    <       0.00000015 Ry

     iteration #  2     ecut=    32.00 Ry     beta= 0.50
     Davidson diagonalization with overlap
     ethr =  1.18E-10,  avg # of iterations =  2.8

     negative rho (up, down):  1.977E-04 0.000E+00

     total cpu time spent up to now is     8964.8 secs

     total energy              =    -351.28094499 Ry
     Harris-Foulkes estimate   =    -351.28094503 Ry
     estimated scf accuracy    <       0.00000012 Ry

     iteration #  3     ecut=    32.00 Ry     beta= 0.50
     Davidson diagonalization with overlap
     ethr =  9.88E-11,  avg # of iterations =  2.6

     negative rho (up, down):  1.977E-04 0.000E+00

     total cpu time spent up to now is     8992.9 secs

     End of self-consistent calculation

          k = 0.0000 0.0000 0.0000 ( 31971 PWs)   bands (ev):

   -21.8601 -20.4043 -20.4040 -19.9264 -19.9261 -19.5733 -18.5189 -18.5179
   -18.5153 -18.5144 -16.8351 -16.8238 -16.6794 -15.5879 -15.0124 -15.0108
   -15.0107 -15.0091 -13.2832 -13.2459 -13.0364 -13.0361 -13.0353 -13.0346
   -12.8963 -12.8957 -11.3509 -10.2234 -10.2214  -9.9419  -9.8714  -9.8679
    -9.6534  -9.3370  -9.0415  -9.0401  -9.0335  -9.0332  -8.8965  -8.8571
    -8.8558  -8.7290  -8.6093  -8.2320  -8.1976  -7.6894  -7.6449  -7.5438
    -7.5431  -7.2795  -6.9029  -6.7709  -6.0989  -6.0937  -6.0865  -6.0793
    -5.5737  -5.5688  -4.7491  -4.6080  -4.5575  -2.3146  -2.3124  -2.3067
    -2.3044  -0.6231  -0.1504   0.3650   0.4433   0.6683   1.4151   1.4193
     1.4304   1.4658   1.4685   1.8622

          k = 0.0000 0.0722 0.0000 ( 31929 PWs)   bands (ev):

   -21.7683 -21.0376 -19.8369 -19.8369 -19.6020 -19.5698 -19.1271 -19.1259
   -17.7512 -17.7504 -17.5364 -16.8346 -16.8237 -15.8831 -15.8826 -14.5976
   -14.4821 -14.4817 -13.6354 -13.6345 -13.2818 -13.2461 -12.3749 -12.3745
   -12.3111 -12.3099 -11.5042 -11.3463 -10.6829 -10.6812 -10.0781 -10.0780
    -9.8300  -9.6487  -9.3377  -8.9758  -8.8058  -8.7160  -8.6075  -8.5461
    -8.5446  -8.3738  -8.3725  -8.2970  -8.1077  -7.6077  -7.5457  -7.3587
    -7.2126  -6.8994  -6.8978  -6.8149  -6.7336  -6.7199  -5.9335  -5.7647
    -5.2834  -5.2816  -5.2097  -4.6101  -4.6047  -3.3243  -3.3228  -1.3274
    -1.3268  -0.0223   0.0225   0.3795   0.3839   0.5462   0.5983   0.7974
     1.2275   1.6746   1.8326   2.2120

          k = 0.0000-0.1443 0.0000 ( 31940 PWs)   bands (ev):

   -21.5005 -21.4867 -19.5891 -19.5769 -19.5746 -19.5617 -19.5472 -18.6347
   -18.6285 -16.8603 -16.8601 -16.8560 -16.8514 -16.8250 -16.8191 -14.1059
   -14.1040 -14.0964 -14.0961 -13.2812 -13.2470 -13.1053 -13.1052 -11.5002
   -11.4975 -11.4920 -11.4918 -11.3427 -11.2784 -11.2750 -11.2740 -11.2720
    -9.6441  -9.5123  -9.4990  -9.3382  -8.7353  -8.6054  -8.5432  -8.5328
    -8.2366  -8.2366  -8.2320  -8.2292  -7.4580  -7.2617  -7.2531  -7.2414
    -7.1201  -6.9265  -6.9096  -6.8946  -6.7779  -6.2649  -6.2530  -6.2316
    -6.2214  -4.6791  -4.6572  -4.3348  -4.3326  -4.2897  -4.2788  -0.4030
    -0.3955  -0.3915  -0.3865   0.2176   0.3689   0.4603   0.8095   1.1686
     1.2293   1.4895   1.5239   1.9880

          k = 0.0833 0.0000 0.0000 ( 31951 PWs)   bands (ev):

   -21.7377 -20.7657 -20.2845 -20.2841 -19.5727 -19.3333 -19.3326 -18.8654
   -17.5086 -17.5085 -16.8352 -16.8344 -16.5751 -16.2259 -15.7394 -15.4869
   -14.8365 -14.5756 -14.5754 -14.0827 -13.2527 -13.2471 -12.3605 -12.1171
   -11.6639 -11.4433 -11.4431 -11.3107 -10.1345  -9.8990  -9.8969  -9.7913
    -9.7064  -9.4047  -9.3343  -9.1123  -9.1118  -8.9366  -8.9363  -8.7634
    -8.7235  -8.6990  -8.6109  -8.0911  -8.0595  -7.9984  -7.9982  -7.6186
    -7.3352  -6.9769  -6.9389  -6.7718  -6.7628  -6.4295  -6.0468  -5.8290
    -5.1835  -5.1705  -4.6782  -4.6141  -4.4748  -3.6080  -3.3329  -1.3566
    -1.0212  -0.6616  -0.0075   0.0225   0.0510   0.4478   0.5020   0.8419
     1.3837   1.6315   2.0431   2.2356

          k = 0.0833 0.0722 0.0000 ( 31951 PWs)   bands (ev):

   -21.6462 -20.9166 -20.6751 -19.9555 -19.5728 -19.4794 -18.7778 -18.5465
   -18.0883 -17.4261 -16.8420 -16.8347 -16.8173 -16.5600 -16.1898 -15.0926
   -14.6028 -14.5067 -13.9904 -13.8674 -13.2515 -13.2480 -12.1747 -12.1624
   -11.9422 -11.7305 -11.4682 -11.3065 -10.6804 -10.2957  -9.7033  -9.6892
    -9.6752  -9.6410  -9.3349  -9.3123  -9.1075  -8.8475  -8.7450  -8.7255
    -8.7024  -8.5932  -8.5173  -8.4311  -8.1128  -7.7078  -7.4768  -7.3324
    -7.2925  -7.1136  -6.7789  -6.7664  -6.3867  -6.3417  -6.0808  -6.0015
    -5.6872  -5.0751  -4.7070  -4.6149  -4.5209  -3.9708  -3.7238  -0.9952
    -0.6745  -0.5107  -0.0195   0.1712   0.4002   0.4640   0.7639   0.9687
     1.3586   1.4944   1.7342   1.8850

          k = 0.0833-0.1443 0.0000 ( 31876 PWs)   bands (ev):

   -21.3787 -21.3649 -20.4109 -20.3974 -19.5719 -18.5236 -18.5202 -18.5135
   -18.5094 -17.6128 -17.6068 -16.8353 -16.8349 -16.2632 -16.2572 -15.2036
   -15.2028 -13.2510 -13.2493 -13.0400 -13.0349 -13.0345 -13.0318 -12.9616
   -12.9571 -11.3452 -11.3385 -11.3012 -10.6564 -10.6532  -9.8757  -9.8700
    -9.6982  -9.3671  -9.3565  -9.3355  -9.0434  -9.0388  -9.0343  -9.0325
    -8.7368  -8.7337  -8.2153  -8.2134  -7.5450  -7.5384  -7.3120  -7.2243
    -7.2141  -6.7891  -6.7675  -6.5631  -6.5573  -6.0974  -6.0921  -6.0883
    -6.0812  -5.0761  -5.0633  -4.6351  -4.6042  -4.0750  -4.0538  -0.8519
    -0.8503   0.3559   0.3945   0.4025   0.5193   0.5509   1.0014   1.3423
     1.3959   1.4154   1.4176   1.4460

          k =-0.1667 0.0000 0.0000 ( 31854 PWs)   bands (ev):

   -21.3764 -21.3672 -19.9310 -19.9300 -19.9221 -19.9217 -19.5690 -17.6102
   -17.6095 -16.8477 -16.8345 -16.6787 -16.6780 -16.2656 -16.2570 -15.5898
   -15.5895 -15.2058 -15.1967 -13.2492 -13.2224 -12.9612 -12.9611 -11.3398
   -11.3398 -11.2646 -10.6618 -10.6503 -10.2224 -10.2203 -10.2203 -10.2183
    -9.7720  -9.3681  -9.3569  -9.3315  -8.8959  -8.8953  -8.8628  -8.8615
    -8.8571  -8.8554  -8.8308  -8.7181  -7.7232  -7.6517  -7.6516  -7.6395
    -7.2398  -7.2281  -7.2158  -6.7691  -6.6550  -6.5601  -6.5532  -5.0912
    -5.0481  -4.7630  -4.7309  -4.6003  -4.5261  -4.0868  -4.0472  -0.8487
    -0.8484  -0.6330  -0.6140   0.4000   0.4658   0.4943   0.5112   0.5648
     0.7493   1.3414   1.3720   2.1136

          k =-0.1667 0.0722 0.0000 ( 31908 PWs)   bands (ev):

   -21.2852 -21.2760 -20.5592 -20.5501 -19.5704 -19.1326 -19.1232 -17.5281
   -17.5274 -17.1016 -17.0936 -16.9335 -16.9315 -16.8437 -16.8330 -15.1889
   -15.1886 -14.2590 -14.2506 -13.5126 -13.5120 -13.2496 -13.2212 -11.4679
   -11.4617 -11.2609 -10.7719 -10.7715 -10.5585 -10.5470  -9.7687  -9.6917
    -9.6816  -9.3325  -9.2623  -9.2511  -9.2057  -9.2016  -9.1651  -9.1648
    -8.8303  -8.7343  -8.3856  -8.3834  -7.8539  -7.8527  -7.5900  -7.5810
    -7.3186  -6.7850  -6.7341  -6.7217  -6.6439  -6.5936  -6.5906  -5.0474
    -5.0021  -4.8075  -4.7907  -4.7098  -4.6488  -4.5336  -4.4957  -0.4756
    -0.4563  -0.2003  -0.1932   0.2806   0.3302   0.4842   0.5337   0.5473
     0.8694   1.4588   1.4892   1.6005

          k =-0.1667-0.1443 0.0000 ( 31784 PWs)   bands (ev):

   -21.0173 -21.0113 -21.0067 -20.9944 -19.5700 -18.1810 -18.1753 -18.1726
   -18.1659 -17.2979 -17.2920 -17.2844 -17.2798 -16.8454 -16.8345 -14.4053
   -14.3993 -14.3973 -14.3920 -13.2506 -13.2203 -12.8691 -12.8690 -12.8615
   -12.8605 -11.2567 -10.2474 -10.2388 -10.2384 -10.2255  -9.8819  -9.8776
    -9.8661  -9.8628  -9.7644  -9.3330  -8.9703  -8.9500  -8.9322  -8.9295
    -8.7828  -8.7071  -8.3304  -8.3290  -8.3259  -8.3209  -7.3092  -7.0079
    -7.0078  -7.0046  -7.0015  -6.7908  -6.6493  -5.7017  -5.6976  -5.6848
    -5.6749  -4.9627  -4.8926  -4.8921  -4.8751  -4.5951  -4.5498  -0.1093
    -0.0793  -0.0783  -0.0617   0.4464   0.5083   0.6475   1.0139   1.1324
     1.1406   1.1530   1.1908   1.3125

          k =-0.0833 0.0722 0.0000 ( 31951 PWs)   bands (ev):

   -21.6462 -20.9166 -20.6751 -19.9555 -19.5728 -19.4794 -18.7778 -18.5465
   -18.0883 -17.4261 -16.8420 -16.8347 -16.8173 -16.5600 -16.1898 -15.0926
   -14.6028 -14.5067 -13.9904 -13.8674 -13.2515 -13.2480 -12.1746 -12.1624
   -11.9422 -11.7305 -11.4682 -11.3065 -10.6804 -10.2956  -9.7033  -9.6893
    -9.6752  -9.6411  -9.3349  -9.3123  -9.1075  -8.8475  -8.7450  -8.7255
    -8.7024  -8.5932  -8.5173  -8.4311  -8.1129  -7.7078  -7.4768  -7.3324
    -7.2924  -7.1136  -6.7789  -6.7664  -6.3867  -6.3417  -6.0808  -6.0016
    -5.6872  -5.0751  -4.7070  -4.6150  -4.5209  -3.9708  -3.7238  -0.9952
    -0.6745  -0.5107  -0.0195   0.1712   0.4001   0.4640   0.7639   0.9687
     1.3586   1.4944   1.7341   1.8850

     the Fermi energy is    -2.3095 ev

!    total energy              =    -351.28094500 Ry
     Harris-Foulkes estimate   =    -351.28094501 Ry
     estimated scf accuracy    <          5.4E-09 Ry

     The total energy is the sum of the following terms:

     one-electron contribution =   -4560.06420075 Ry
     hartree contribution      =    2300.11136994 Ry
     xc contribution           =    -112.23636002 Ry
     ewald contribution        =    2020.91106614 Ry
     smearing contrib. (-TS)   =      -0.00282032 Ry

     convergence has been achieved in   3 iterations

     Forces acting on atoms (cartesian axes, Ry/au):

     atom    1 type  1   force =    -0.00000070    0.00003078    0.00000984
     atom    2 type  1   force =     0.00000287    0.00004977   -0.00001036
     atom    3 type  1   force =     0.00000548    0.00001893    0.00004271
     atom    4 type  1   force =    -0.00001984   -0.00003898   -0.00002164
     atom    5 type  1   force =     0.00000076    0.00004761   -0.00002174
     atom    6 type  1   force =     0.00003575   -0.00002089    0.00004249
     atom    7 type  1   force =    -0.00002491   -0.00003724   -0.00000998
     atom    8 type  1   force =    -0.00000021   -0.00003268    0.00000967
     atom    9 type  1   force =     0.00000021    0.00003268    0.00000967
     atom   10 type  1   force =    -0.00000586   -0.00001791    0.00000494
     atom   11 type  1   force =     0.00002202    0.00002323   -0.00001813
     atom   12 type  1   force =    -0.00000076   -0.00004761   -0.00002174
     atom   13 type  1   force =     0.00001984    0.00003898   -0.00002164
     atom   14 type  1   force =    -0.00002202   -0.00002323   -0.00001813
     atom   15 type  1   force =     0.00000586    0.00001791    0.00000494
     atom   16 type  1   force =     0.00000070   -0.00003078    0.00000984
     atom   17 type  1   force =    -0.00001898    0.00001247   -0.00000901
     atom   18 type  1   force =     0.00002491    0.00003724   -0.00000998
     atom   19 type  1   force =    -0.00003575    0.00002089    0.00004249
     atom   20 type  1   force =     0.00002760    0.00000340   -0.00002678
     atom   21 type  1   force =    -0.00002760   -0.00000340   -0.00002678
     atom   22 type  1   force =    -0.00000548   -0.00001893    0.00004271
     atom   23 type  1   force =    -0.00000287   -0.00004977   -0.00001036
     atom   24 type  1   force =     0.00001898   -0.00001247   -0.00000901
     atom   25 type  1   force =     0.00000090    0.00000848    0.00000181
     atom   26 type  1   force =     0.00000381   -0.00000720    0.00000088
     atom   27 type  1   force =    -0.00002508    0.00001208    0.00000266
     atom   28 type  1   force =    -0.00000090   -0.00000848    0.00000181
     atom   29 type  1   force =    -0.00000381    0.00000720    0.00000088
     atom   30 type  1   force =     0.00002508   -0.00001208    0.00000266
     atom   31 type  2   force =     0.00001056    0.00001617   -0.00000167
     atom   32 type  2   force =    -0.00000544    0.00002287   -0.00000086
     atom   33 type  2   force =    -0.00001168    0.00000121    0.00000517
     atom   34 type  2   force =    -0.00001056   -0.00001617   -0.00000167
     atom   35 type  2   force =     0.00000544   -0.00002287   -0.00000086
     atom   36 type  2   force =     0.00001168   -0.00000121    0.00000517

     Total force =     0.000217     Total SCF correction =     0.000133
     SCF correction compared to forces is large: reduce conv_thr to get better values

     bfgs converged in  42 scf cycles and  41 bfgs steps
     (criteria: energy <  1.0E-05 Ry, force <  1.0E-04 Ry/Bohr)

     End of BFGS Geometry Optimization

     Final energy   =    -351.2809450011 Ry
Begin final coordinates

ATOMIC_POSITIONS (angstrom)
C        1.230298494   0.000350025  -0.178404699
C        0.000342288   0.710423624  -0.175964772
C        0.000726346   2.131115204  -0.192263106
C        1.230364281   2.840714715  -0.213739905
C        1.230360181   4.260691419  -0.213739929
C        0.000720297   4.970293091  -0.192263307
C        0.000353201   6.390980799  -0.175965468
C        1.230300435   7.101058667  -0.178404782
C        3.689699565   0.000349644  -0.178404782
C        2.459999383   0.711118042  -0.190860750
C        2.459993669   2.131014063  -0.212871282
C        3.689639819   2.840716892  -0.213739929
C        3.689635719   4.260693596  -0.213739905
C        2.460006331   4.970394248  -0.212871282
C        2.460000617   6.390290269  -0.190860750
C        3.689701506   7.101058286  -0.178404699
C        6.150003208   0.000309084  -0.167410990
C        4.919646799   0.710427512  -0.175965468
C        4.919279703   2.131115220  -0.192263307
C        6.149992450   2.840542708  -0.190171886
C        6.150007550   4.260865603  -0.190171886
C        4.919273654   4.970293107  -0.192263106
C        4.919657712   6.390984687  -0.175964772
C        6.149996792   7.101099227  -0.167410990
C        3.157485758   2.341604673   3.385707286
C        1.762493650   2.341612192   3.385706071
C        1.066852723   3.550708184   3.385986341
C        1.762514242   4.759803638   3.385707286
C        3.157506350   4.759796119   3.385706071
C        3.853147277   3.550700127   3.385986341
H        3.701939976   1.401038693   3.374519246
H        1.218023495   1.401048049   3.374509564
H       -0.018987721   3.550713009   3.375632371
H        1.218060024   5.700369618   3.374519246
H        3.701976505   5.700360262   3.374509564
H        4.938987721   3.550695302   3.375632371
End final coordinates



     Writing output data file batch_graph+benzene.save/

     init_run     :     20.05s CPU     20.33s WALL (       1 calls)
     electrons    :   8240.31s CPU   8359.37s WALL (      42 calls)
     update_pot   :    144.22s CPU    147.63s WALL (      41 calls)
     forces       :    440.46s CPU    444.77s WALL (      42 calls)

     Called by init_run:
     wfcinit      :     15.66s CPU     15.81s WALL (       1 calls)
     potinit      :      2.39s CPU      2.48s WALL (       1 calls)
     hinit0       :      1.13s CPU      1.14s WALL (       1 calls)

     Called by electrons:
     c_bands      :   6868.89s CPU   6943.10s WALL (     254 calls)
     sum_band     :    842.93s CPU    860.78s WALL (     254 calls)
     v_of_rho     :    437.28s CPU    458.14s WALL (     286 calls)
     newd         :    161.97s CPU    170.92s WALL (     286 calls)
     mix_rho      :      9.17s CPU      9.43s WALL (     254 calls)

     Called by c_bands:
     init_us_2    :     26.16s CPU     26.25s WALL (    5510 calls)
     cegterg      :   6807.31s CPU   6880.79s WALL (    2540 calls)

     Called by sum_band:
     sum_band:bec :      0.99s CPU      1.00s WALL (    2540 calls)
     addusdens    :    115.30s CPU    123.41s WALL (     254 calls)

     Called by *egterg:
     h_psi        :   3422.19s CPU   3477.84s WALL (    9260 calls)
     s_psi        :   1012.42s CPU   1015.12s WALL (    9260 calls)
     g_psi        :      5.41s CPU      5.45s WALL (    6710 calls)
     cdiaghg      :    232.99s CPU    233.59s WALL (    8740 calls)

     Called by h_psi:
     h_psi:pot    :   3414.51s CPU   3463.46s WALL (    9260 calls)
     h_psi:calbec :   1091.33s CPU   1094.87s WALL (    9260 calls)
     vloc_psi     :   1305.40s CPU   1348.38s WALL (    9260 calls)
     add_vuspsi   :   1017.73s CPU   1020.18s WALL (    9260 calls)

     General routines
     calbec       :   1790.93s CPU   1796.52s WALL (   13480 calls)
     fft          :    289.48s CPU    300.17s WALL (   18069 calls)
     ffts         :      1.32s CPU      1.36s WALL (     540 calls)
     fftw         :   1467.42s CPU   1516.20s WALL ( 1191704 calls)
     interpolate  :      5.64s CPU      5.83s WALL (     286 calls)

     Parallel routines
     fft_scatt_xy :    159.45s CPU    165.38s WALL ( 1210313 calls)
     fft_scatt_yz :    260.38s CPU    280.92s WALL ( 1210313 calls)

     PWSCF        :      2h27m CPU      2h30m WALL


   This run was terminated on:  17:37:20   1Dec2020            

=------------------------------------------------------------------------------=
   JOB DONE.
=------------------------------------------------------------------------------=
