
     Program PWSCF v.6.4.1 starts on  1Dec2020 at 17:37:20 

     This program is part of the open-source Quantum ESPRESSO suite
     for quantum simulation of materials; please cite
         "P. Giannozzi et al., J. Phys.:Condens. Matter 21 395502 (2009);
         "P. Giannozzi et al., J. Phys.:Condens. Matter 29 465901 (2017);
          URL http://www.quantum-espresso.org", 
     in publications or presentations arising from this work. More details at
     http://www.quantum-espresso.org/quote

     Parallel version (MPI), running on     8 processors

     MPI processes distributed on     1 nodes
     R & G space division:  proc/nbgrp/npool/nimage =       8
     Waiting for input...
     Reading input from standard input

     Current dimensions of program PWSCF are:
     Max number of different atomic species (ntypx) = 10
     Max number of k-points (npk) =  40000
     Max angular momentum in pseudopotentials (lmaxx) =  3

     IMPORTANT: XC functional enforced from input :
     Exchange-correlation      = VDW-DF ( 1  4  4  0 1 0)
     Any further DFT definition will be discarded
     Please, verify this is what you really want

               file C.pbe-rrkjus.UPF: wavefunction(s)  2S 2P renormalized

     Subspace diagonalization in iterative solution of the eigenvalue problem:
     a serial algorithm will be used

     Message from routine setup:
     DEPRECATED: symmetry with ibrav=0, use correct ibrav instead

     Parallelization info
     --------------------
     sticks:   dense  smooth     PW     G-vecs:    dense   smooth      PW
     Min         714     285     79               126154    31889    4649
     Max         715     286     80               126163    31900    4658
     Sum        5713    2283    637              1009261   255153   37237



     bravais-lattice index     =            0
     lattice parameter (alat)  =       4.6487  a.u.
     unit-cell volume          =   10440.3175 (a.u.)^3
     number of atoms/cell      =           36
     number of atomic types    =            2
     number of electrons       =       126.00
     number of Kohn-Sham states=           76
     kinetic-energy cutoff     =      32.0000  Ry
     charge density cutoff     =     320.0000  Ry
     convergence threshold     =      1.0E-06
     mixing beta               =       0.5000
     number of iterations used =            8  plain     mixing
     Exchange-correlation      = VDW-DF ( 1  4  4  0 1 0)
     nstep                     =          200


     celldm(1)=   4.648726  celldm(2)=   0.000000  celldm(3)=   0.000000
     celldm(4)=   0.000000  celldm(5)=   0.000000  celldm(6)=   0.000000

     crystal axes: (cart. coord. in units of alat)
               a(1) = (   3.000000   0.000000   0.000000 )  
               a(2) = (   0.000000   3.464102   0.000000 )  
               a(3) = (   0.000000   0.000000  10.000000 )  

     reciprocal axes: (cart. coord. in units 2 pi/alat)
               b(1) = (  0.333333  0.000000  0.000000 )  
               b(2) = (  0.000000  0.288675  0.000000 )  
               b(3) = (  0.000000  0.000000  0.100000 )  


     PseudoPot. # 1 for C  read from file:
     ../../pseudopotentials/C.pbe-rrkjus.UPF
     MD5 check sum: 00fb224312de0c5b6853bd333518df6f
     Pseudo is Ultrasoft, Zval =  4.0
     Generated by new atomic code, or converted to UPF format
     Using radial grid of  627 points,  4 beta functions with: 
                l(1) =   0
                l(2) =   0
                l(3) =   1
                l(4) =   1
     Q(r) pseudized with 0 coefficients 


     PseudoPot. # 2 for H  read from file:
     ../../pseudopotentials/H.pbe-rrkjus_psl.1.0.0.UPF
     MD5 check sum: 3f4114867bd07edc7f1424d066fc1888
     Pseudo is Ultrasoft, Zval =  1.0
     Generated using "atomic" code by A. Dal Corso v.6.3MaX
     Using radial grid of  929 points,  2 beta functions with: 
                l(1) =   0
                l(2) =   0
     Q(r) pseudized with 0 coefficients 


     vdW kernel table read from file vdW_kernel_table
     MD5 check sum: 48e77a2e26edf626eeb0eaa751ad5cac

     atomic species   valence    mass     pseudopotential
        C              4.00    12.01070     C ( 1.00)
        H              1.00     1.00790     H ( 1.00)

      2 Sym. Ops. (no inversion) found ( 1 have fractional translation)



   Cartesian axes

     site n.     atom                  positions (alat units)
         1           C   tau(   1) = (   0.5000000   0.0000000   0.0000000  )
         2           C   tau(   2) = (   0.0000000   0.2886752   0.0000000  )
         3           C   tau(   3) = (   0.0000000   0.8660255   0.0000000  )
         4           C   tau(   4) = (   0.5000000   1.1547006   0.0000000  )
         5           C   tau(   5) = (   0.5000000   1.7320509   0.0000000  )
         6           C   tau(   6) = (   0.0000000   2.0207261   0.0000000  )
         7           C   tau(   7) = (   0.0000000   2.5980764   0.0000000  )
         8           C   tau(   8) = (   0.5000000   2.8867516   0.0000000  )
         9           C   tau(   9) = (   1.5000001   0.0000000   0.0000000  )
        10           C   tau(  10) = (   1.0000001   0.2886752   0.0000000  )
        11           C   tau(  11) = (   1.0000001   0.8660255   0.0000000  )
        12           C   tau(  12) = (   1.5000001   1.1547006   0.0000000  )
        13           C   tau(  13) = (   1.5000001   1.7320509   0.0000000  )
        14           C   tau(  14) = (   1.0000001   2.0207261   0.0000000  )
        15           C   tau(  15) = (   1.0000001   2.5980764   0.0000000  )
        16           C   tau(  16) = (   1.5000001   2.8867516   0.0000000  )
        17           C   tau(  17) = (   2.5000002   0.0000000   0.0000000  )
        18           C   tau(  18) = (   2.0000002   0.2886752   0.0000000  )
        19           C   tau(  19) = (   2.0000002   0.8660255   0.0000000  )
        20           C   tau(  20) = (   2.5000002   1.1547006   0.0000000  )
        21           C   tau(  21) = (   2.5000002   1.7320509   0.0000000  )
        22           C   tau(  22) = (   2.0000002   2.0207261   0.0000000  )
        23           C   tau(  23) = (   2.0000002   2.5980764   0.0000000  )
        24           C   tau(  24) = (   2.5000002   2.8867516   0.0000000  )
        25           C   tau(  25) = (   1.4009414   1.0424345   1.2195123  )
        26           C   tau(  26) = (   0.8533100   0.8957415   1.2195123  )
        27           C   tau(  27) = (   0.4523658   1.2966857   1.2195123  )
        28           C   tau(  28) = (   0.5990588   1.8443171   1.2195123  )
        29           C   tau(  29) = (   1.1466901   1.9910101   1.2195123  )
        30           C   tau(  30) = (   1.5476344   1.5900658   1.2195123  )
        31           H   tau(  31) = (   1.7144677   0.7289082   1.2195123  )
        32           H   tau(  32) = (   0.7385082   0.4675323   1.2195123  )
        33           H   tau(  33) = (   0.0241565   1.1818839   1.2195123  )
        34           H   tau(  34) = (   0.2855325   2.1578434   1.2195123  )
        35           H   tau(  35) = (   1.2614920   2.4192193   1.2195123  )
        36           H   tau(  36) = (   1.9758436   1.7048677   1.2195123  )

     number of k points=    10  gaussian smearing, width (Ry)=  0.0200
                       cart. coord. in units 2pi/alat
        k(    1) = (   0.0000000   0.0000000   0.0000000), wk =   0.1250000
        k(    2) = (   0.0000000   0.0721688   0.0000000), wk =   0.2500000
        k(    3) = (   0.0000000  -0.1443376   0.0000000), wk =   0.1250000
        k(    4) = (   0.0833333   0.0000000   0.0000000), wk =   0.2500000
        k(    5) = (   0.0833333   0.0721688   0.0000000), wk =   0.2500000
        k(    6) = (   0.0833333  -0.1443376   0.0000000), wk =   0.2500000
        k(    7) = (  -0.1666667   0.0000000   0.0000000), wk =   0.1250000
        k(    8) = (  -0.1666667   0.0721688   0.0000000), wk =   0.2500000
        k(    9) = (  -0.1666667  -0.1443376   0.0000000), wk =   0.1250000
        k(   10) = (  -0.0833333   0.0721688   0.0000000), wk =   0.2500000

     Dense  grid:  1009261 G-vectors     FFT dimensions: (  81,  96, 270)

     Smooth grid:   255153 G-vectors     FFT dimensions: (  54,  60, 180)

     Estimated max dynamical RAM per process >     428.39 MB

     Estimated total dynamical RAM >       3.35 GB

     Initial potential from superposition of free atoms

     starting charge  125.99836, renormalised to  126.00000

     negative rho (up, down):  2.493E-04 0.000E+00


     %%%%%%%%%%%%%%%%%%%%%%%%%%%%%%%%%%%%%%%%%%%%%%%%%%%%%%%%%%%%%%%%%%%%%%%%
     %                                                                      %
     % You are using vdW-DF, which was implemented by the Thonhauser group. %
     % Please cite the following two papers that made this development      %
     % possible and the two reviews that describe the various versions:     %
     %                                                                      %
     %   T. Thonhauser et al., PRL 115, 136402 (2015).                      %
     %   T. Thonhauser et al., PRB 76, 125112 (2007).                       %
     %   K. Berland et al., Rep. Prog. Phys. 78, 066501 (2015).             %
     %   D.C. Langreth et al., J. Phys.: Condens. Matter 21, 084203 (2009). %
     %                                                                      %
     %                                                                      %
     % If you are calculating the stress with vdW-DF, please also cite:     %
     %                                                                      %
     %   R. Sabatini et al., J. Phys.: Condens. Matter 24, 424209 (2012).   %
     %                                                                      %
     %%%%%%%%%%%%%%%%%%%%%%%%%%%%%%%%%%%%%%%%%%%%%%%%%%%%%%%%%%%%%%%%%%%%%%%%


     Starting wfcs are  126 randomized atomic wfcs

     total cpu time spent up to now is       20.6 secs

     Self-consistent Calculation

     iteration #  1     ecut=    32.00 Ry     beta= 0.50
     Davidson diagonalization with overlap
     ethr =  1.00E-02,  avg # of iterations =  2.0

     negative rho (up, down):  2.114E-04 0.000E+00

     total cpu time spent up to now is       58.0 secs

     total energy              =    -350.85926207 Ry
     Harris-Foulkes estimate   =    -352.96127681 Ry
     estimated scf accuracy    <       4.24978405 Ry

     iteration #  2     ecut=    32.00 Ry     beta= 0.50
     Davidson diagonalization with overlap
     ethr =  3.37E-03,  avg # of iterations =  5.5

     negative rho (up, down):  5.158E-04 0.000E+00

     total cpu time spent up to now is       90.1 secs

     total energy              =    -351.19707636 Ry
     Harris-Foulkes estimate   =    -351.35256889 Ry
     estimated scf accuracy    <       0.39618266 Ry

     iteration #  3     ecut=    32.00 Ry     beta= 0.50
     Davidson diagonalization with overlap
     ethr =  3.14E-04,  avg # of iterations =  9.9

     negative rho (up, down):  4.309E-04 0.000E+00

     total cpu time spent up to now is      127.1 secs

     total energy              =    -351.23468466 Ry
     Harris-Foulkes estimate   =    -351.25332656 Ry
     estimated scf accuracy    <       0.05577984 Ry

     iteration #  4     ecut=    32.00 Ry     beta= 0.50
     Davidson diagonalization with overlap
     ethr =  4.43E-05,  avg # of iterations =  5.9

     negative rho (up, down):  2.841E-04 0.000E+00

     total cpu time spent up to now is      161.8 secs

     total energy              =    -351.24341763 Ry
     Harris-Foulkes estimate   =    -351.24956469 Ry
     estimated scf accuracy    <       0.01862241 Ry

     iteration #  5     ecut=    32.00 Ry     beta= 0.50
     Davidson diagonalization with overlap
     ethr =  1.48E-05,  avg # of iterations =  3.1

     negative rho (up, down):  3.001E-04 0.000E+00

     total cpu time spent up to now is      191.4 secs

     total energy              =    -351.24716312 Ry
     Harris-Foulkes estimate   =    -351.24743044 Ry
     estimated scf accuracy    <       0.00252771 Ry

     iteration #  6     ecut=    32.00 Ry     beta= 0.50
     Davidson diagonalization with overlap
     c_bands:  1 eigenvalues not converged
     ethr =  2.01E-06,  avg # of iterations =  7.2

     negative rho (up, down):  2.424E-04 0.000E+00

     total cpu time spent up to now is      224.5 secs

     total energy              =    -351.24752114 Ry
     Harris-Foulkes estimate   =    -351.24760203 Ry
     estimated scf accuracy    <       0.00027970 Ry

     iteration #  7     ecut=    32.00 Ry     beta= 0.50
     Davidson diagonalization with overlap
     ethr =  2.22E-07,  avg # of iterations =  2.4

     negative rho (up, down):  2.227E-04 0.000E+00

     total cpu time spent up to now is      252.7 secs

     total energy              =    -351.24757308 Ry
     Harris-Foulkes estimate   =    -351.24757142 Ry
     estimated scf accuracy    <       0.00002098 Ry

     iteration #  8     ecut=    32.00 Ry     beta= 0.50
     Davidson diagonalization with overlap
     ethr =  1.66E-08,  avg # of iterations =  2.5

     negative rho (up, down):  2.146E-04 0.000E+00

     total cpu time spent up to now is      285.7 secs

     total energy              =    -351.24757721 Ry
     Harris-Foulkes estimate   =    -351.24757853 Ry
     estimated scf accuracy    <       0.00000408 Ry

     iteration #  9     ecut=    32.00 Ry     beta= 0.50
     Davidson diagonalization with overlap
     ethr =  3.24E-09,  avg # of iterations =  2.2

     negative rho (up, down):  2.114E-04 0.000E+00

     total cpu time spent up to now is      314.9 secs

     End of self-consistent calculation

          k = 0.0000 0.0000 0.0000 ( 31971 PWs)   bands (ev):

   -21.9273 -20.4740 -20.4695 -20.0004 -19.9906 -19.5467 -18.5830 -18.5800
   -18.5796 -18.5787 -16.8416 -16.8066 -16.7114 -15.6528 -15.0729 -15.0720
   -15.0718 -15.0713 -13.2521 -13.2298 -13.0991 -13.0984 -13.0860 -13.0813
   -12.9573 -12.9572 -11.3320 -10.2801 -10.2799 -10.0238  -9.9337  -9.9318
    -9.6617  -9.3142  -9.1075  -9.1067  -9.0855  -9.0850  -8.9537  -8.9167
    -8.9163  -8.7427  -8.6387  -8.4110  -8.2341  -7.8472  -7.7253  -7.6000
    -7.5987  -7.0270  -6.7850  -6.7531  -6.2489  -6.2182  -6.1393  -6.0749
    -5.6284  -5.6274  -4.9071  -4.4383  -4.3232  -2.4038  -2.4029  -2.3521
    -2.3518  -0.7550  -0.0531   0.4230   0.4762   0.6932   1.3293   1.3472
     1.4169   1.5112   1.5842   1.9836

          k = 0.0000 0.0722 0.0000 ( 31929 PWs)   bands (ev):

   -21.8356 -21.1048 -19.9128 -19.9012 -19.6776 -19.5387 -19.1909 -19.1836
   -17.8161 -17.8154 -17.6020 -16.8100 -16.8062 -15.9434 -15.9431 -14.6614
   -14.5439 -14.5428 -13.6980 -13.6969 -13.2395 -13.2166 -12.4379 -12.4354
   -12.3704 -12.3686 -11.5656 -11.3236 -10.7409 -10.7401 -10.1379 -10.1378
    -9.9240  -9.6633  -9.3132  -9.1189  -8.8632  -8.6597  -8.6406  -8.6041
    -8.6004  -8.4338  -8.4302  -8.3536  -8.1634  -7.8109  -7.6328  -7.4367
    -7.0975  -6.9535  -6.9119  -6.7712  -6.6921  -6.6392  -5.9931  -5.8183
    -5.4536  -5.4091  -5.2836  -4.4364  -4.4039  -3.3669  -3.3575  -1.4139
    -1.4095  -0.1564   0.0895   0.2447   0.3400   0.7050   0.7364   0.8242
     1.3061   1.7947   1.8595   2.2161

          k = 0.0000-0.1443 0.0000 ( 31940 PWs)   bands (ev):

   -21.5713 -21.5502 -19.6801 -19.6467 -19.6456 -19.6199 -19.5004 -18.6968
   -18.6936 -16.9477 -16.9429 -16.9206 -16.9135 -16.7818 -16.7757 -14.1737
   -14.1723 -14.1532 -14.1509 -13.2557 -13.2173 -13.1702 -13.1474 -11.5626
   -11.5612 -11.5487 -11.5476 -11.3566 -11.3438 -11.3389 -11.3265 -11.2909
    -9.6664  -9.6294  -9.6099  -9.3127  -8.6837  -8.6363  -8.6104  -8.5751
    -8.3033  -8.2919  -8.2918  -8.2811  -7.6606  -7.3579  -7.3475  -7.3307
    -6.9901  -6.9672  -6.9068  -6.7469  -6.7047  -6.3653  -6.3276  -6.2990
    -6.2329  -4.7794  -4.7651  -4.4102  -4.4024  -4.1077  -4.0770  -0.5508
    -0.5400  -0.4640  -0.4521   0.3331   0.4482   0.6017   0.8733   1.1924
     1.2484   1.4115   1.5391   2.0775

          k = 0.0833 0.0000 0.0000 ( 31951 PWs)   bands (ev):

   -21.8050 -20.8330 -20.3547 -20.3497 -19.5691 -19.3983 -19.3787 -18.9283
   -17.5751 -17.5737 -16.8259 -16.8149 -16.6219 -16.2855 -15.7984 -15.5516
   -14.9003 -14.6381 -14.6362 -14.1432 -13.2262 -13.2202 -12.4232 -12.1776
   -11.7218 -11.5036 -11.5025 -11.2949 -10.1963  -9.9590  -9.9571  -9.8892
    -9.6683  -9.4626  -9.3144  -9.1719  -9.1702  -8.9952  -8.9938  -8.8683
    -8.7572  -8.7181  -8.6029  -8.2471  -8.1162  -8.0548  -8.0537  -7.6785
    -7.3081  -7.0929  -6.8679  -6.7363  -6.7117  -6.4536  -6.1007  -5.8887
    -5.3444  -5.2906  -4.7887  -4.4334  -4.2887  -3.6301  -3.3669  -1.4460
    -1.1088  -0.7864  -0.1837  -0.0824   0.1462   0.6262   0.6866   0.8678
     1.5189   1.7431   2.1356   2.2083

          k = 0.0833 0.0722 0.0000 ( 31951 PWs)   bands (ev):

   -21.7134 -20.9838 -20.7425 -20.0246 -19.5884 -19.5071 -18.8412 -18.6101
   -18.1527 -17.4920 -16.9125 -16.8147 -16.7956 -16.6121 -16.2493 -15.1542
   -14.6638 -14.5699 -14.0536 -13.9292 -13.2239 -13.2212 -12.2336 -12.2222
   -12.0022 -11.7923 -11.5293 -11.2881 -10.7395 -10.3550  -9.7884  -9.7434
    -9.7026  -9.6645  -9.3715  -9.3130  -9.1643  -8.9943  -8.8121  -8.7829
    -8.6600  -8.6476  -8.5244  -8.4905  -8.1706  -7.8403  -7.5362  -7.3552
    -7.3470  -6.9671  -6.7603  -6.7353  -6.4416  -6.4072  -6.1634  -6.0590
    -5.7869  -5.2159  -4.8466  -4.4563  -4.3756  -3.9349  -3.7308  -1.0875
    -0.7809  -0.6242  -0.1606   0.2656   0.3620   0.6303   0.8506   0.9971
     1.4515   1.6175   1.6885   1.9534

          k = 0.0833-0.1443 0.0000 ( 31876 PWs)   bands (ev):

   -21.4494 -21.4285 -20.4815 -20.4620 -19.5526 -18.5948 -18.5839 -18.5777
   -18.5658 -17.6773 -17.6725 -16.8207 -16.8097 -16.3271 -16.3094 -15.2661
   -15.2633 -13.2403 -13.2341 -13.1027 -13.1017 -13.0868 -13.0797 -13.0232
   -13.0038 -11.4120 -11.3960 -11.2764 -10.7203 -10.7095  -9.9373  -9.9267
    -9.6705  -9.4996  -9.4673  -9.3147  -9.1109  -9.1014  -9.0902  -9.0788
    -8.7517  -8.6894  -8.3301  -8.2772  -7.6052  -7.5955  -7.2843  -7.2710
    -7.1181  -6.7660  -6.7530  -6.6234  -6.6067  -6.2409  -6.1799  -6.1568
    -6.1110  -5.2329  -5.1600  -4.5965  -4.4289  -4.0587  -3.9600  -0.9736
    -0.9393   0.2291   0.3281   0.4762   0.5774   0.6427   1.0636   1.3292
     1.3434   1.3754   1.4102   1.4470

          k =-0.1667 0.0000 0.0000 ( 31854 PWs)   bands (ev):

   -21.4470 -21.4310 -20.0015 -19.9999 -19.9994 -19.9809 -19.5343 -17.6782
   -17.6723 -16.8602 -16.8354 -16.7266 -16.7018 -16.3333 -16.3023 -15.6526
   -15.6507 -15.2769 -15.2543 -13.2344 -13.2092 -13.0198 -13.0115 -11.4054
   -11.4022 -11.2532 -10.7232 -10.7065 -10.2868 -10.2846 -10.2758 -10.2746
    -9.6783  -9.4930  -9.4791  -9.3145  -8.9586  -8.9578  -8.9192  -8.9188
    -8.9139  -8.9097  -8.7383  -8.6980  -7.9653  -7.7396  -7.7304  -7.7262
    -7.2863  -7.2679  -6.8987  -6.7371  -6.7114  -6.6273  -6.6046  -5.3239
    -5.1090  -4.8955  -4.8902  -4.5688  -4.2042  -4.1617  -3.9160  -0.9972
    -0.9210  -0.7883  -0.7011   0.2616   0.4410   0.5681   0.6380   0.7878
     0.8676   1.3652   1.4084   2.1990

          k =-0.1667 0.0722 0.0000 ( 31908 PWs)   bands (ev):

   -21.3557 -21.3398 -20.6295 -20.6145 -19.5558 -19.2027 -19.1753 -17.5965
   -17.5903 -17.1714 -17.1605 -17.0159 -16.9987 -16.7968 -16.7941 -15.2514
   -15.2496 -14.3290 -14.3070 -13.5776 -13.5719 -13.2206 -13.2068 -11.5357
   -11.5156 -11.2515 -10.8332 -10.8316 -10.6198 -10.6029  -9.7519  -9.7413
    -9.6774  -9.3973  -9.3739  -9.3194  -9.2642  -9.2590  -9.2236  -9.2216
    -8.7737  -8.7609  -8.4642  -8.4351  -7.9138  -7.9087  -7.6475  -7.6357
    -7.2061  -6.8747  -6.7678  -6.6852  -6.6589  -6.6436  -6.6318  -5.2974
    -5.0893  -4.9820  -4.9274  -4.7813  -4.7210  -4.2007  -4.1974  -0.6396
    -0.5666  -0.3467  -0.2690   0.1210   0.2554   0.6492   0.7014   0.7461
     0.9807   1.4948   1.5212   1.6876

          k =-0.1667-0.1443 0.0000 ( 31784 PWs)   bands (ev):

   -21.0909 -21.0790 -21.0740 -21.0545 -19.5507 -18.2513 -18.2446 -18.2291
   -18.2267 -17.3700 -17.3608 -17.3484 -17.3426 -16.8090 -16.8059 -14.4713
   -14.4596 -14.4583 -14.4509 -13.2259 -13.2150 -12.9387 -12.9357 -12.9198
   -12.9019 -11.2443 -10.3161 -10.3053 -10.2926 -10.2706  -9.9501  -9.9388
    -9.9242  -9.9158  -9.6798  -9.3158  -9.1468  -9.1131  -9.0786  -9.0063
    -8.6608  -8.6172  -8.3886  -8.3867  -8.3861  -8.3753  -7.0910  -7.0703
    -7.0664  -7.0643  -7.0504  -6.7536  -6.7261  -5.9167  -5.7962  -5.7485
    -5.6988  -5.2480  -4.9904  -4.9674  -4.9366  -4.3204  -4.2075  -0.3628
    -0.1955  -0.1513  -0.1325   0.4429   0.6870   0.7741   1.0335   1.0672
     1.0723   1.1684   1.3045   1.3781

          k =-0.0833 0.0722 0.0000 ( 31951 PWs)   bands (ev):

   -21.7134 -20.9838 -20.7425 -20.0246 -19.5885 -19.5071 -18.8411 -18.6101
   -18.1527 -17.4921 -16.9137 -16.8122 -16.7966 -16.6125 -16.2491 -15.1543
   -14.6640 -14.5701 -14.0534 -13.9293 -13.2241 -13.2204 -12.2339 -12.2224
   -12.0022 -11.7924 -11.5296 -11.2876 -10.7396 -10.3551  -9.7884  -9.7430
    -9.7027  -9.6663  -9.3710  -9.3131  -9.1643  -8.9934  -8.8122  -8.7844
    -8.6626  -8.6444  -8.5213  -8.4901  -8.1708  -7.8349  -7.5363  -7.3606
    -7.3483  -6.9803  -6.7722  -6.7270  -6.4417  -6.3882  -6.1618  -6.0590
    -5.7860  -5.2204  -4.8488  -4.4523  -4.3774  -3.9354  -3.7299  -1.0893
    -0.7805  -0.6248  -0.1660   0.2601   0.3649   0.6389   0.8557   0.9969
     1.4370   1.5891   1.6811   1.9509

     the Fermi energy is    -2.3776 ev

!    total energy              =    -351.24757749 Ry
     Harris-Foulkes estimate   =    -351.24757785 Ry
     estimated scf accuracy    <       0.00000049 Ry

     The total energy is the sum of the following terms:

     one-electron contribution =   -4816.18066268 Ry
     hartree contribution      =    2428.03404452 Ry
     xc contribution           =    -112.31931522 Ry
     ewald contribution        =    2149.22115183 Ry
     smearing contrib. (-TS)   =      -0.00279594 Ry

     convergence has been achieved in   9 iterations

     Forces acting on atoms (cartesian axes, Ry/au):

     atom    1 type  1   force =    -0.00090406    0.00070851    0.00064191
     atom    2 type  1   force =     0.00088612   -0.00082809    0.00098353
     atom    3 type  1   force =     0.00376440    0.00272029   -0.00253678
     atom    4 type  1   force =    -0.00065173   -0.00076496   -0.01245221
     atom    5 type  1   force =    -0.00065983    0.00067878   -0.01244689
     atom    6 type  1   force =     0.00356358   -0.00293499   -0.00258155
     atom    7 type  1   force =     0.00074846    0.00090759    0.00059121
     atom    8 type  1   force =    -0.00089973   -0.00073330    0.00100827
     atom    9 type  1   force =     0.00089973    0.00073330    0.00100827
     atom   10 type  1   force =     0.00008668    0.00420973   -0.00265354
     atom   11 type  1   force =     0.00004725   -0.00064693   -0.01272992
     atom   12 type  1   force =     0.00065983   -0.00067878   -0.01244689
     atom   13 type  1   force =     0.00065173    0.00076496   -0.01245221
     atom   14 type  1   force =    -0.00004725    0.00064693   -0.01272992
     atom   15 type  1   force =    -0.00008668   -0.00420973   -0.00265354
     atom   16 type  1   force =     0.00090406   -0.00070851    0.00064191
     atom   17 type  1   force =    -0.00007224   -0.00007599    0.00052579
     atom   18 type  1   force =    -0.00074846   -0.00090759    0.00059121
     atom   19 type  1   force =    -0.00356358    0.00293499   -0.00258155
     atom   20 type  1   force =    -0.00010839    0.00045556    0.00110267
     atom   21 type  1   force =     0.00010839   -0.00045556    0.00110267
     atom   22 type  1   force =    -0.00376440   -0.00272029   -0.00253678
     atom   23 type  1   force =    -0.00088612    0.00082809    0.00098353
     atom   24 type  1   force =     0.00007224    0.00007599    0.00052579
     atom   25 type  1   force =     0.00276245   -0.00218737    0.01349910
     atom   26 type  1   force =    -0.00136000   -0.00292007    0.01350719
     atom   27 type  1   force =    -0.00342434   -0.00070111    0.01350993
     atom   28 type  1   force =    -0.00276245    0.00218737    0.01349910
     atom   29 type  1   force =     0.00136000    0.00292007    0.01350719
     atom   30 type  1   force =     0.00342434    0.00070111    0.01350993
     atom   31 type  2   force =    -0.00378901    0.00349895   -0.00001598
     atom   32 type  2   force =     0.00120209    0.00489298   -0.00002012
     atom   33 type  2   force =     0.00499527    0.00111706    0.00006741
     atom   34 type  2   force =     0.00378901   -0.00349895   -0.00001598
     atom   35 type  2   force =    -0.00120209   -0.00489298   -0.00002012
     atom   36 type  2   force =    -0.00499527   -0.00111706    0.00006741

     Total force =     0.049507     Total SCF correction =     0.001677

     BFGS Geometry Optimization

     number of scf cycles    =   1
     number of bfgs steps    =   0

     energy   new            =    -351.2475774928 Ry

     new trust radius        =       0.0139547795 bohr
     new conv_thr            =       0.0000010000 Ry


ATOMIC_POSITIONS (angstrom)
C        1.229521590   0.000374928   0.000339683
C        0.000468915   0.709702624   0.000520460
C        0.001992033   2.131862009  -0.001342405
C        1.229655122   2.840158527  -0.006589427
C        1.229650836   4.261204182  -0.006586608
C        0.001885766   4.969432689  -0.001366100
C        0.000396069   6.391747755   0.000312854
C        1.229523885   7.101020264   0.000533551
C        3.690476115   0.000388047   0.000533551
C        2.460045868   0.712368525  -0.001404195
C        2.460025006   2.130080155  -0.006736386
C        3.690349164   2.840204129  -0.006586608
C        3.690344878   4.261249784  -0.006589427
C        2.459974994   4.971328156  -0.006736386
C        2.459954132   6.389039786  -0.001404195
C        3.690478410   7.101033383   0.000339683
C        6.149961772  -0.000040211   0.000278236
C        4.919603931   0.709660556   0.000312854
C        4.918114234   2.131975622  -0.001366100
C        6.149942640   2.840804395   0.000583509
C        6.150057360   4.260603916   0.000583509
C        4.918007967   4.969546302  -0.001342405
C        4.919531085   6.391705687   0.000520460
C        6.150038228   7.101448522   0.000278236
C        3.447777370   2.563231106   3.007143416
C        2.098422827   2.201978644   3.007147695
C        1.111007640   3.189475654   3.007149147
C        1.472222630   4.538177205   3.007143416
C        2.821577173   4.899429667   3.007147695
C        3.808992360   3.911932657   3.007149147
H        4.215585073   1.794965593   2.999991544
H        1.817366119   1.152718500   2.999989355
H        0.062068478   2.908025280   3.000035670
H        0.704414927   5.306442718   2.999991544
H        3.102633881   5.948689811   2.999989355
H        4.857931522   4.193383031   3.000035670



     Writing output data file batch_graph+benzene.save/
     NEW-OLD atomic charge density approx. for the potential

     negative rho (up, down):  2.107E-04 0.000E+00

     total cpu time spent up to now is      329.6 secs

     Self-consistent Calculation

     iteration #  1     ecut=    32.00 Ry     beta= 0.50
     Davidson diagonalization with overlap
     ethr =  1.00E-06,  avg # of iterations =  3.7

     negative rho (up, down):  2.109E-04 0.000E+00

     total cpu time spent up to now is      377.6 secs

     total energy              =    -351.24966076 Ry
     Harris-Foulkes estimate   =    -351.24986220 Ry
     estimated scf accuracy    <       0.00046107 Ry

     iteration #  2     ecut=    32.00 Ry     beta= 0.50
     Davidson diagonalization with overlap
     ethr =  3.66E-07,  avg # of iterations =  2.0

     negative rho (up, down):  2.110E-04 0.000E+00

     total cpu time spent up to now is      408.2 secs

     total energy              =    -351.24973091 Ry
     Harris-Foulkes estimate   =    -351.24974082 Ry
     estimated scf accuracy    <       0.00004951 Ry

     iteration #  3     ecut=    32.00 Ry     beta= 0.50
     Davidson diagonalization with overlap
     ethr =  3.93E-08,  avg # of iterations =  2.0

     negative rho (up, down):  2.121E-04 0.000E+00

     total cpu time spent up to now is      437.9 secs

     total energy              =    -351.24973767 Ry
     Harris-Foulkes estimate   =    -351.24973864 Ry
     estimated scf accuracy    <       0.00001018 Ry

     iteration #  4     ecut=    32.00 Ry     beta= 0.50
     Davidson diagonalization with overlap
     ethr =  8.08E-09,  avg # of iterations =  2.0

     negative rho (up, down):  2.123E-04 0.000E+00

     total cpu time spent up to now is      467.9 secs

     total energy              =    -351.24973919 Ry
     Harris-Foulkes estimate   =    -351.24973943 Ry
     estimated scf accuracy    <       0.00000190 Ry

     iteration #  5     ecut=    32.00 Ry     beta= 0.50
     Davidson diagonalization with overlap
     ethr =  1.51E-09,  avg # of iterations =  2.2

     negative rho (up, down):  2.111E-04 0.000E+00

     total cpu time spent up to now is      497.0 secs

     End of self-consistent calculation

          k = 0.0000 0.0000 0.0000 ( 31971 PWs)   bands (ev):

   -21.9317 -20.4782 -20.4739 -20.0010 -19.9984 -19.5260 -18.5909 -18.5909
   -18.5812 -18.5773 -16.8372 -16.8052 -16.7169 -15.6536 -15.0886 -15.0849
   -15.0689 -15.0653 -13.2607 -13.2390 -13.1100 -13.0983 -13.0979 -13.0834
   -12.9656 -12.9596 -11.3417 -10.2988 -10.2792 -10.0263  -9.9349  -9.9334
    -9.7031  -9.2992  -9.1103  -9.1039  -9.0953  -9.0908  -8.9623  -8.9233
    -8.9098  -8.7512  -8.6521  -8.4081  -8.2384  -7.8409  -7.7323  -7.6090
    -7.6078  -7.0260  -6.7936  -6.7654  -6.2539  -6.2172  -6.1450  -6.0771
    -5.6391  -5.6269  -4.9052  -4.4407  -4.3304  -2.4219  -2.4166  -2.3486
    -2.3431  -0.7513  -0.0445   0.4182   0.4674   0.6919   1.3165   1.3442
     1.4048   1.5046   1.5860   1.9859

          k = 0.0000 0.0722 0.0000 ( 31929 PWs)   bands (ev):

   -21.8400 -21.1092 -19.9115 -19.9105 -19.6785 -19.5217 -19.2012 -19.1828
   -17.8249 -17.8158 -17.6066 -16.8057 -16.8039 -15.9512 -15.9450 -14.6633
   -14.5520 -14.5455 -13.7083 -13.6977 -13.2488 -13.2278 -12.4435 -12.4381
   -12.3826 -12.3695 -11.5676 -11.3335 -10.7564 -10.7395 -10.1424 -10.1415
    -9.9263  -9.7046  -9.2981  -9.1209  -8.8712  -8.6680  -8.6521  -8.6130
    -8.5973  -8.4397  -8.4293  -8.3571  -8.1720  -7.8003  -7.6394  -7.4366
    -7.0979  -6.9631  -6.9188  -6.7792  -6.7042  -6.6445  -5.9920  -5.8298
    -5.4505  -5.4119  -5.2866  -4.4392  -4.4065  -3.3749  -3.3633  -1.4191
    -1.4117  -0.1517   0.0964   0.2467   0.3333   0.6877   0.7223   0.8227
     1.3116   1.8003   1.8586   2.2173

          k = 0.0000-0.1443 0.0000 ( 31940 PWs)   bands (ev):

   -21.5739 -21.5564 -19.6704 -19.6537 -19.6438 -19.6336 -19.4881 -18.7007
   -18.6988 -16.9472 -16.9443 -16.9244 -16.9209 -16.7833 -16.7741 -14.1788
   -14.1732 -14.1664 -14.1534 -13.2629 -13.2285 -13.1718 -13.1531 -11.5743
   -11.5637 -11.5579 -11.5499 -11.3605 -11.3492 -11.3392 -11.3345 -11.3007
    -9.7070  -9.6306  -9.6133  -9.2977  -8.6923  -8.6493  -8.6138  -8.5891
    -8.3079  -8.2967  -8.2958  -8.2793  -7.6452  -7.3649  -7.3530  -7.3306
    -6.9941  -6.9628  -6.9120  -6.7567  -6.7169  -6.3673  -6.3337  -6.3142
    -6.2395  -4.7692  -4.7578  -4.4185  -4.4052  -4.1206  -4.0881  -0.5526
    -0.5437  -0.4691  -0.4511   0.3355   0.4398   0.5866   0.8821   1.1905
     1.2514   1.4071   1.5338   2.0844

          k = 0.0833 0.0000 0.0000 ( 31951 PWs)   bands (ev):

   -21.8094 -20.8374 -20.3589 -20.3540 -19.5491 -19.4029 -19.3820 -18.9331
   -17.5796 -17.5781 -16.8202 -16.8136 -16.6287 -16.2902 -15.8054 -15.5525
   -14.9012 -14.6439 -14.6423 -14.1505 -13.2354 -13.2314 -12.4256 -12.1846
   -11.7303 -11.5089 -11.5081 -11.3050 -10.1974  -9.9603  -9.9589  -9.8914
    -9.7095  -9.4704  -9.2994  -9.1756  -9.1748  -8.9990  -8.9978  -8.8733
    -8.7664  -8.7277  -8.6103  -8.2455  -8.1200  -8.0636  -8.0627  -7.6783
    -7.3031  -7.0960  -6.8731  -6.7455  -6.7234  -6.4587  -6.1121  -5.8874
    -5.3418  -5.2900  -4.7862  -4.4370  -4.2973  -3.6362  -3.3768  -1.4458
    -1.1147  -0.7827  -0.1847  -0.0868   0.1531   0.6110   0.6689   0.8665
     1.5212   1.7455   2.1315   2.2075

          k = 0.0833 0.0722 0.0000 ( 31951 PWs)   bands (ev):

   -21.7178 -20.9882 -20.7469 -20.0287 -19.5803 -19.4984 -18.8459 -18.6148
   -18.1574 -17.4966 -16.9138 -16.8103 -16.7961 -16.6177 -16.2538 -15.1604
   -14.6706 -14.5722 -14.0562 -13.9352 -13.2330 -13.2325 -12.2405 -12.2267
   -12.0095 -11.7955 -11.5316 -11.2983 -10.7455 -10.3605  -9.7906  -9.7470
    -9.7176  -9.6931  -9.3788  -9.2985  -9.1722  -8.9967  -8.8186  -8.7865
    -8.6679  -8.6566  -8.5303  -8.4918  -8.1746  -7.8386  -7.5378  -7.3597
    -7.3513  -6.9686  -6.7691  -6.7484  -6.4482  -6.4105  -6.1668  -6.0630
    -5.7880  -5.2164  -4.8420  -4.4572  -4.3812  -3.9463  -3.7376  -1.0931
    -0.7815  -0.6276  -0.1575   0.2701   0.3585   0.6163   0.8348   0.9954
     1.4564   1.6187   1.6836   1.9452

          k = 0.0833-0.1443 0.0000 ( 31876 PWs)   bands (ev):

   -21.4521 -21.4347 -20.4841 -20.4682 -19.5310 -18.5971 -18.5906 -18.5830
   -18.5700 -17.6812 -17.6779 -16.8188 -16.8048 -16.3308 -16.3142 -15.2718
   -15.2711 -13.2475 -13.2442 -13.1095 -13.1018 -13.0892 -13.0875 -13.0265
   -13.0107 -11.4153 -11.4052 -11.2872 -10.7233 -10.7138  -9.9413  -9.9360
    -9.7117  -9.5008  -9.4701  -9.2996  -9.1143  -9.1053  -9.0970  -9.0872
    -8.7623  -8.6977  -8.3303  -8.2802  -7.6107  -7.5954  -7.2905  -7.2700
    -7.1126  -6.7748  -6.7658  -6.6271  -6.6192  -6.2450  -6.1835  -6.1576
    -6.1158  -5.2320  -5.1616  -4.5940  -4.4309  -4.0668  -3.9708  -0.9770
    -0.9454   0.2336   0.3271   0.4774   0.5652   0.6329   1.0703   1.3239
     1.3344   1.3738   1.4123   1.4357

          k =-0.1667 0.0000 0.0000 ( 31854 PWs)   bands (ev):

   -21.4488 -21.4381 -20.0074 -19.9993 -19.9972 -19.9941 -19.5145 -17.6827
   -17.6770 -16.8579 -16.8300 -16.7301 -16.7073 -16.3380 -16.3113 -15.6592
   -15.6573 -15.2707 -15.2622 -13.2446 -13.2184 -13.0275 -13.0204 -11.4068
   -11.4039 -11.2637 -10.7324 -10.7120 -10.2945 -10.2919 -10.2738 -10.2735
    -9.7194  -9.4946  -9.4810  -9.2995  -8.9625  -8.9581  -8.9368  -8.9258
    -8.9244  -8.9066  -8.7497  -8.7073  -7.9554  -7.7377  -7.7368  -7.7345
    -7.3022  -7.2732  -6.9023  -6.7500  -6.7213  -6.6189  -6.6116  -5.3162
    -5.1126  -4.8916  -4.8863  -4.5689  -4.2172  -4.1704  -3.9298  -0.9987
    -0.9150  -0.7906  -0.7071   0.2596   0.4339   0.5707   0.6238   0.7659
     0.8727   1.3638   1.4074   2.2029

          k =-0.1667 0.0722 0.0000 ( 31908 PWs)   bands (ev):

   -21.3576 -21.3469 -20.6312 -20.6216 -19.5343 -19.2042 -19.1829 -17.6009
   -17.5950 -17.1732 -17.1673 -17.0183 -17.0024 -16.7979 -16.7910 -15.2575
   -15.2558 -14.3255 -14.3153 -13.5841 -13.5784 -13.2322 -13.2159 -11.5318
   -11.5243 -11.2618 -10.8360 -10.8344 -10.6291 -10.6088  -9.7621  -9.7503
    -9.7151  -9.3987  -9.3758  -9.3066  -9.2667  -9.2632  -9.2274  -9.2253
    -8.7804  -8.7708  -8.4670  -8.4380  -7.9197  -7.9138  -7.6609  -7.6387
    -7.2005  -6.8792  -6.7782  -6.6940  -6.6544  -6.6521  -6.6400  -5.2886
    -5.0908  -4.9758  -4.9286  -4.7851  -4.7272  -4.2139  -4.2091  -0.6413
    -0.5708  -0.3481  -0.2652   0.1186   0.2477   0.6506   0.6858   0.7244
     0.9857   1.4924   1.5200   1.6929

          k =-0.1667-0.1443 0.0000 ( 31784 PWs)   bands (ev):

   -21.0925 -21.0827 -21.0760 -21.0650 -19.5289 -18.2536 -18.2452 -18.2367
   -18.2347 -17.3724 -17.3632 -17.3543 -17.3492 -16.8087 -16.8014 -14.4751
   -14.4658 -14.4645 -14.4594 -13.2369 -13.2233 -12.9340 -12.9338 -12.9280
   -12.9114 -11.2548 -10.3219 -10.3063 -10.3060 -10.2814  -9.9545  -9.9429
    -9.9266  -9.9186  -9.7206  -9.3010  -9.1459  -9.1167  -9.0824  -9.0084
    -8.6703  -8.6254  -8.4033  -8.3942  -8.3869  -8.3767  -7.0867  -7.0743
    -7.0715  -7.0606  -7.0596  -6.7659  -6.7366  -5.9163  -5.7994  -5.7522
    -5.7048  -5.2390  -4.9901  -4.9703  -4.9403  -4.3277  -4.2207  -0.3605
    -0.1994  -0.1580  -0.1389   0.4412   0.6694   0.7722   1.0274   1.0683
     1.0705   1.1694   1.2904   1.3840

          k =-0.0833 0.0722 0.0000 ( 31951 PWs)   bands (ev):

   -21.7178 -20.9882 -20.7469 -20.0287 -19.5804 -19.4984 -18.8459 -18.6148
   -18.1574 -17.4967 -16.9146 -16.8093 -16.7960 -16.6180 -16.2537 -15.1605
   -14.6707 -14.5724 -14.0559 -13.9353 -13.2332 -13.2317 -12.2408 -12.2269
   -12.0094 -11.7956 -11.5319 -11.2978 -10.7455 -10.3605  -9.7905  -9.7462
    -9.7187  -9.6944  -9.3784  -9.2985  -9.1722  -8.9959  -8.8189  -8.7878
    -8.6701  -8.6534  -8.5274  -8.4915  -8.1749  -7.8333  -7.5378  -7.3615
    -7.3563  -6.9813  -6.7844  -6.7361  -6.4481  -6.3923  -6.1653  -6.0631
    -5.7872  -5.2209  -4.8437  -4.4543  -4.3826  -3.9465  -3.7368  -1.0948
    -0.7815  -0.6278  -0.1628   0.2645   0.3625   0.6227   0.8404   0.9951
     1.4417   1.5915   1.6757   1.9433

     the Fermi energy is    -2.3825 ev

!    total energy              =    -351.24973942 Ry
     Harris-Foulkes estimate   =    -351.24973965 Ry
     estimated scf accuracy    <       0.00000042 Ry

     The total energy is the sum of the following terms:

     one-electron contribution =   -4812.46569120 Ry
     hartree contribution      =    2426.16728950 Ry
     xc contribution           =    -112.32438553 Ry
     ewald contribution        =    2147.37581769 Ry
     smearing contrib. (-TS)   =      -0.00276987 Ry

     convergence has been achieved in   5 iterations

     Forces acting on atoms (cartesian axes, Ry/au):

     atom    1 type  1   force =     0.00075587    0.00041724    0.00064349
     atom    2 type  1   force =     0.00141570    0.00043003    0.00121373
     atom    3 type  1   force =     0.00001084   -0.00026597   -0.00284433
     atom    4 type  1   force =     0.00152139    0.00129126   -0.01135315
     atom    5 type  1   force =     0.00143875   -0.00135945   -0.01135139
     atom    6 type  1   force =     0.00006371    0.00027927   -0.00292900
     atom    7 type  1   force =     0.00133337   -0.00042873    0.00077813
     atom    8 type  1   force =     0.00062896   -0.00040679    0.00079291
     atom    9 type  1   force =    -0.00062896    0.00040679    0.00079291
     atom   10 type  1   force =     0.00001383    0.00063833   -0.00328577
     atom   11 type  1   force =     0.00004511    0.00144127   -0.01169164
     atom   12 type  1   force =    -0.00143875    0.00135945   -0.01135139
     atom   13 type  1   force =    -0.00152139   -0.00129126   -0.01135315
     atom   14 type  1   force =    -0.00004511   -0.00144127   -0.01169164
     atom   15 type  1   force =    -0.00001383   -0.00063833   -0.00328577
     atom   16 type  1   force =    -0.00075587   -0.00041724    0.00064349
     atom   17 type  1   force =     0.00008020    0.00003226    0.00097505
     atom   18 type  1   force =    -0.00133337    0.00042873    0.00077813
     atom   19 type  1   force =    -0.00006371   -0.00027927   -0.00292900
     atom   20 type  1   force =     0.00014881    0.00084080    0.00056312
     atom   21 type  1   force =    -0.00014881   -0.00084080    0.00056312
     atom   22 type  1   force =    -0.00001084    0.00026597   -0.00284433
     atom   23 type  1   force =    -0.00141570   -0.00043003    0.00121373
     atom   24 type  1   force =    -0.00008020   -0.00003226    0.00097505
     atom   25 type  1   force =    -0.00402345    0.00347692    0.01237081
     atom   26 type  1   force =     0.00163897    0.00503410    0.01237524
     atom   27 type  1   force =     0.00457412    0.00135373    0.01239206
     atom   28 type  1   force =     0.00402345   -0.00347692    0.01237081
     atom   29 type  1   force =    -0.00163897   -0.00503410    0.01237524
     atom   30 type  1   force =    -0.00457412   -0.00135373    0.01239206
     atom   31 type  2   force =     0.00019540   -0.00044385    0.00042489
     atom   32 type  2   force =    -0.00021589   -0.00024166    0.00042326
     atom   33 type  2   force =    -0.00042971   -0.00029522    0.00050260
     atom   34 type  2   force =    -0.00019540    0.00044385    0.00042489
     atom   35 type  2   force =     0.00021589    0.00024166    0.00042326
     atom   36 type  2   force =     0.00042971    0.00029522    0.00050260

     Total force =     0.044341     Total SCF correction =     0.001654

     number of scf cycles    =   2
     number of bfgs steps    =   1

     energy   old            =    -351.2475774928 Ry
     energy   new            =    -351.2497394162 Ry

     CASE: energy  _new < energy  _old

     new trust radius        =       0.0153502574 bohr
     new conv_thr            =       0.0000010000 Ry


ATOMIC_POSITIONS (angstrom)
C        1.229477929   0.000726601   0.000741770
C        0.001189810   0.709580151   0.001208158
C        0.003166872   2.132624897  -0.003026170
C        1.229930690   2.840326499  -0.014034208
C        1.229897900   4.260987951  -0.014029177
C        0.003014739   4.968607173  -0.003090422
C        0.001048236   6.391895379   0.000741500
C        1.229441667   7.100664160   0.001096629
C        3.690558333   0.000744151   0.001096629
C        2.460077191   0.713879249  -0.003263102
C        2.460053895   2.130332025  -0.014374021
C        3.690102100   2.840420360  -0.014029177
C        3.690069310   4.261081812  -0.014034208
C        2.459946105   4.971076286  -0.014374021
C        2.459922809   6.387529062  -0.003263102
C        3.690522071   7.100681710   0.000741770
C        6.149964509  -0.000053715   0.000748443
C        4.918951764   0.709512932   0.000741500
C        4.916985261   2.132801138  -0.003090422
C        6.149955700   2.841210536   0.001103710
C        6.150044300   4.260197775   0.001103710
C        4.916833128   4.968783414  -0.003026170
C        4.918810190   6.391828160   0.001208158
C        6.150035491   7.101462026   0.000748443
C        3.447371899   2.563643690   3.015233961
C        2.098514960   2.202652850   3.015242150
C        1.111380290   3.189683136   3.015249744
C        1.472628101   4.537764621   3.015233961
C        2.821485040   4.898755461   3.015242150
C        3.808619710   3.911725175   3.015249744
H        4.214467426   1.795914861   3.000120171
H        1.817672311   1.154165142   3.000116184
H        0.063487824   2.908280069   3.000214679
H        0.705532574   5.305493450   3.000120171
H        3.102327689   5.947243170   3.000116184
H        4.856512176   4.193128243   3.000214679



     Writing output data file batch_graph+benzene.save/
     NEW-OLD atomic charge density approx. for the potential

     negative rho (up, down):  2.099E-04 0.000E+00

     total cpu time spent up to now is      511.9 secs

     Self-consistent Calculation

     iteration #  1     ecut=    32.00 Ry     beta= 0.50
     Davidson diagonalization with overlap
     ethr =  1.00E-06,  avg # of iterations =  4.0

     negative rho (up, down):  2.101E-04 0.000E+00

     total cpu time spent up to now is      560.0 secs

     total energy              =    -351.25171798 Ry
     Harris-Foulkes estimate   =    -351.25194045 Ry
     estimated scf accuracy    <       0.00050443 Ry

     iteration #  2     ecut=    32.00 Ry     beta= 0.50
     Davidson diagonalization with overlap
     ethr =  4.00E-07,  avg # of iterations =  2.0

     negative rho (up, down):  2.105E-04 0.000E+00

     total cpu time spent up to now is      590.6 secs

     total energy              =    -351.25180327 Ry
     Harris-Foulkes estimate   =    -351.25181603 Ry
     estimated scf accuracy    <       0.00005769 Ry

     iteration #  3     ecut=    32.00 Ry     beta= 0.50
     Davidson diagonalization with overlap
     ethr =  4.58E-08,  avg # of iterations =  2.0

     negative rho (up, down):  2.109E-04 0.000E+00

     total cpu time spent up to now is      620.7 secs

     total energy              =    -351.25181175 Ry
     Harris-Foulkes estimate   =    -351.25181332 Ry
     estimated scf accuracy    <       0.00001313 Ry

     iteration #  4     ecut=    32.00 Ry     beta= 0.50
     Davidson diagonalization with overlap
     ethr =  1.04E-08,  avg # of iterations =  2.0

     negative rho (up, down):  2.116E-04 0.000E+00

     total cpu time spent up to now is      650.2 secs

     total energy              =    -351.25181367 Ry
     Harris-Foulkes estimate   =    -351.25181432 Ry
     estimated scf accuracy    <       0.00000333 Ry

     iteration #  5     ecut=    32.00 Ry     beta= 0.50
     Davidson diagonalization with overlap
     ethr =  2.64E-09,  avg # of iterations =  2.2

     negative rho (up, down):  2.104E-04 0.000E+00

     total cpu time spent up to now is      678.5 secs

     End of self-consistent calculation

          k = 0.0000 0.0000 0.0000 ( 31971 PWs)   bands (ev):

   -21.9353 -20.4825 -20.4769 -20.0077 -19.9987 -19.5330 -18.5986 -18.5963
   -18.5819 -18.5791 -16.8389 -16.8100 -16.7230 -15.6566 -15.0983 -15.0936
   -15.0682 -15.0636 -13.2637 -13.2414 -13.1155 -13.1075 -13.0985 -13.0861
   -12.9713 -12.9621 -11.3480 -10.3087 -10.2791 -10.0282  -9.9373  -9.9372
    -9.7049  -9.3022  -9.1128  -9.1027  -9.1026  -9.0971  -8.9675  -8.9299
    -8.9098  -8.7540  -8.6570  -8.4069  -8.2395  -7.8390  -7.7365  -7.6132
    -7.6128  -7.0393  -6.7948  -6.7656  -6.2559  -6.2157  -6.1489  -6.0843
    -5.6443  -5.6298  -4.9035  -4.4502  -4.3435  -2.4312  -2.4249  -2.3488
    -2.3422  -0.7502  -0.0416   0.4251   0.4672   0.6896   1.3097   1.3409
     1.3948   1.4980   1.5861   1.9884

          k = 0.0000 0.0722 0.0000 ( 31929 PWs)   bands (ev):

   -21.8436 -21.1129 -19.9181 -19.9108 -19.6814 -19.5290 -19.2079 -19.1845
   -17.8313 -17.8170 -17.6102 -16.8104 -16.8077 -15.9570 -15.9476 -14.6666
   -14.5579 -14.5476 -13.7152 -13.6988 -13.2526 -13.2312 -12.4493 -12.4399
   -12.3909 -12.3703 -11.5709 -11.3399 -10.7654 -10.7396 -10.1466 -10.1450
    -9.9278  -9.7063  -9.3012  -9.1225  -8.8759  -8.6692  -8.6561  -8.6203
    -8.5972  -8.4454  -8.4314  -8.3610  -8.1766  -7.7966  -7.6431  -7.4375
    -7.1036  -6.9680  -6.9219  -6.7811  -6.7045  -6.6572  -5.9949  -5.8354
    -5.4479  -5.4132  -5.2895  -4.4484  -4.4168  -3.3818  -3.3694  -1.4226
    -1.4138  -0.1475   0.0990   0.2533   0.3312   0.6767   0.7156   0.8203
     1.3143   1.8002   1.8571   2.2174

          k = 0.0000-0.1443 0.0000 ( 31940 PWs)   bands (ev):

   -21.5740 -21.5636 -19.6729 -19.6570 -19.6438 -19.6406 -19.4972 -18.7053
   -18.7017 -16.9524 -16.9439 -16.9295 -16.9228 -16.7901 -16.7797 -14.1811
   -14.1774 -14.1716 -14.1577 -13.2656 -13.2319 -13.1729 -13.1601 -11.5834
   -11.5710 -11.5566 -11.5520 -11.3643 -11.3518 -11.3424 -11.3393 -11.3084
    -9.7086  -9.6329  -9.6139  -9.3008  -8.6935  -8.6536  -8.6138  -8.5993
    -8.3160  -8.3024  -8.2934  -8.2827  -7.6415  -7.3693  -7.3560  -7.3285
    -6.9963  -6.9663  -6.9247  -6.7600  -6.7195  -6.3672  -6.3365  -6.3218
    -6.2467  -4.7645  -4.7549  -4.4219  -4.4080  -4.1378  -4.1043  -0.5513
    -0.5421  -0.4728  -0.4554   0.3373   0.4398   0.5842   0.8839   1.1884
     1.2518   1.4049   1.5243   2.0837

          k = 0.0833 0.0000 0.0000 ( 31951 PWs)   bands (ev):

   -21.8130 -20.8411 -20.3630 -20.3571 -19.5542 -19.4060 -19.3884 -18.9370
   -17.5840 -17.5810 -16.8226 -16.8184 -16.6340 -16.2943 -15.8101 -15.5555
   -14.9043 -14.6474 -14.6472 -14.1549 -13.2389 -13.2350 -12.4291 -12.1888
   -11.7351 -11.5133 -11.5121 -11.3116 -10.2006  -9.9634  -9.9626  -9.8926
    -9.7112  -9.4749  -9.3025  -9.1796  -9.1787  -9.0029  -9.0021  -8.8763
    -8.7710  -8.7310  -8.6117  -8.2451  -8.1212  -8.0681  -8.0678  -7.6815
    -7.3058  -7.0977  -6.8815  -6.7498  -6.7242  -6.4654  -6.1175  -5.8903
    -5.3407  -5.2896  -4.7850  -4.4464  -4.3097  -3.6437  -3.3842  -1.4477
    -1.1177  -0.7821  -0.1810  -0.0892   0.1556   0.6049   0.6624   0.8643
     1.5233   1.7463   2.1285   2.2065

          k = 0.0833 0.0722 0.0000 ( 31951 PWs)   bands (ev):

   -21.7214 -20.9919 -20.7505 -20.0323 -19.5840 -19.5054 -18.8498 -18.6188
   -18.1613 -17.5003 -16.9161 -16.8144 -16.8010 -16.6228 -16.2579 -15.1646
   -14.6749 -14.5756 -14.0595 -13.9394 -13.2368 -13.2358 -12.2449 -12.2307
   -12.0140 -11.7991 -11.5351 -11.3048 -10.7496 -10.3646  -9.7923  -9.7494
    -9.7198  -9.6974  -9.3832  -9.3017  -9.1770  -8.9985  -8.8217  -8.7907
    -8.6698  -8.6611  -8.5314  -8.4952  -8.1785  -7.8382  -7.5412  -7.3645
    -7.3538  -6.9814  -6.7705  -6.7485  -6.4530  -6.4136  -6.1699  -6.0669
    -5.7898  -5.2162  -4.8396  -4.4646  -4.3896  -3.9582  -3.7461  -1.0958
    -0.7820  -0.6294  -0.1556   0.2727   0.3618   0.6108   0.8255   0.9930
     1.4590   1.6198   1.6792   1.9392

          k = 0.0833-0.1443 0.0000 ( 31876 PWs)   bands (ev):

   -21.4521 -21.4419 -20.4842 -20.4755 -19.5377 -18.6004 -18.5968 -18.5827
   -18.5761 -17.6857 -17.6810 -16.8232 -16.8084 -16.3323 -16.3212 -15.2769
   -15.2745 -13.2502 -13.2466 -13.1164 -13.1065 -13.0905 -13.0900 -13.0279
   -13.0189 -11.4160 -11.4125 -11.2942 -10.7248 -10.7199  -9.9452  -9.9407
    -9.7135  -9.5030  -9.4708  -9.3027  -9.1150  -9.1066  -9.1054  -9.0940
    -8.7666  -8.6991  -8.3308  -8.2805  -7.6136  -7.5998  -7.2937  -7.2741
    -7.1244  -6.7762  -6.7655  -6.6303  -6.6258  -6.2458  -6.1873  -6.1571
    -6.1223  -5.2303  -5.1643  -4.5959  -4.4380  -4.0760  -3.9860  -0.9768
    -0.9494   0.2416   0.3307   0.4792   0.5619   0.6251   1.0716   1.3207
     1.3276   1.3721   1.4118   1.4274

          k =-0.1667 0.0000 0.0000 ( 31854 PWs)   bands (ev):

   -21.4496 -21.4445 -20.0118 -20.0031 -20.0028 -19.9943 -19.5224 -17.6865
   -17.6806 -16.8601 -16.8318 -16.7338 -16.7150 -16.3393 -16.3196 -15.6628
   -15.6621 -15.2696 -15.2694 -13.2473 -13.2220 -13.0319 -13.0260 -11.4095
   -11.4076 -11.2706 -10.7379 -10.7154 -10.3055 -10.2984 -10.2766 -10.2679
    -9.7212  -9.4963  -9.4824  -9.3027  -8.9661  -8.9606  -8.9477  -8.9296
    -8.9286  -8.9072  -8.7526  -8.7100  -7.9512  -7.7401  -7.7388  -7.7366
    -7.3094  -7.2764  -6.9218  -6.7501  -6.7229  -6.6183  -6.6182  -5.3123
    -5.1160  -4.8896  -4.8829  -4.5712  -4.2371  -4.1735  -3.9464  -0.9979
    -0.9162  -0.7887  -0.7117   0.2638   0.4289   0.5725   0.6192   0.7530
     0.8747   1.3616   1.4055   2.2034

          k =-0.1667 0.0722 0.0000 ( 31908 PWs)   bands (ev):

   -21.3583 -21.3533 -20.6320 -20.6282 -19.5406 -19.2048 -19.1905 -17.6047
   -17.5986 -17.1739 -17.1736 -17.0212 -17.0052 -16.8047 -16.7958 -15.2615
   -15.2603 -14.3250 -14.3227 -13.5881 -13.5826 -13.2361 -13.2196 -11.5318
   -11.5314 -11.2684 -10.8400 -10.8376 -10.6347 -10.6122  -9.7681  -9.7527
    -9.7176  -9.4003  -9.3774  -9.3095  -9.2733  -9.2651  -9.2304  -9.2298
    -8.7829  -8.7735  -8.4668  -8.4390  -7.9269  -7.9147  -7.6680  -7.6414
    -7.2071  -6.8805  -6.7821  -6.6969  -6.6608  -6.6538  -6.6460  -5.2841
    -5.0919  -4.9738  -4.9274  -4.7872  -4.7299  -4.2340  -4.2271  -0.6387
    -0.5718  -0.3487  -0.2669   0.1213   0.2430   0.6523   0.6796   0.7123
     0.9880   1.4895   1.5179   1.6968

          k =-0.1667-0.1443 0.0000 ( 31784 PWs)   bands (ev):

   -21.0911 -21.0843 -21.0791 -21.0765 -19.5357 -18.2554 -18.2446 -18.2436
   -18.2420 -17.3713 -17.3639 -17.3628 -17.3552 -16.8146 -16.8053 -14.4782
   -14.4712 -14.4676 -14.4646 -13.2404 -13.2263 -12.9356 -12.9328 -12.9315
   -12.9222 -11.2614 -10.3241 -10.3152 -10.3043 -10.2903  -9.9554  -9.9467
    -9.9292  -9.9262  -9.7226  -9.3041  -9.1472  -9.1202  -9.0846  -9.0078
    -8.6727  -8.6262  -8.4102  -8.4003  -8.3881  -8.3795  -7.1002  -7.0810
    -7.0729  -7.0688  -7.0591  -6.7658  -6.7379  -5.9143  -5.8005  -5.7536
    -5.7121  -5.2352  -4.9903  -4.9698  -4.9440  -4.3430  -4.2410  -0.3525
    -0.2006  -0.1617  -0.1432   0.4472   0.6602   0.7737   1.0250   1.0632
     1.0681   1.1709   1.2760   1.3863

          k =-0.0833 0.0722 0.0000 ( 31951 PWs)   bands (ev):

   -21.7214 -20.9919 -20.7505 -20.0323 -19.5840 -19.5054 -18.8498 -18.6187
   -18.1613 -17.5004 -16.9169 -16.8134 -16.8008 -16.6230 -16.2578 -15.1647
   -14.6750 -14.5758 -14.0593 -13.9394 -13.2369 -13.2352 -12.2452 -12.2309
   -12.0140 -11.7991 -11.5354 -11.3044 -10.7497 -10.3647  -9.7923  -9.7488
    -9.7205  -9.6988  -9.3828  -9.3016  -9.1769  -8.9977  -8.8222  -8.7919
    -8.6724  -8.6575  -8.5287  -8.4947  -8.1787  -7.8329  -7.5412  -7.3654
    -7.3597  -6.9937  -6.7842  -6.7385  -6.4530  -6.3955  -6.1683  -6.0669
    -5.7890  -5.2207  -4.8413  -4.4617  -4.3909  -3.9583  -3.7454  -1.0973
    -0.7819  -0.6297  -0.1607   0.2670   0.3656   0.6171   0.8308   0.9927
     1.4444   1.5939   1.6706   1.9378

     the Fermi energy is    -2.3868 ev

!    total energy              =    -351.25181411 Ry
     Harris-Foulkes estimate   =    -351.25181447 Ry
     estimated scf accuracy    <       0.00000059 Ry

     The total energy is the sum of the following terms:

     one-electron contribution =   -4808.46518564 Ry
     hartree contribution      =    2424.15351703 Ry
     xc contribution           =    -112.32779361 Ry
     ewald contribution        =    2145.39040444 Ry
     smearing contrib. (-TS)   =      -0.00275634 Ry

     convergence has been achieved in   5 iterations

     Forces acting on atoms (cartesian axes, Ry/au):

     atom    1 type  1   force =     0.00180150   -0.00011687    0.00049850
     atom    2 type  1   force =     0.00058082    0.00176710    0.00081607
     atom    3 type  1   force =    -0.00285349   -0.00218852   -0.00261162
     atom    4 type  1   force =     0.00167955    0.00131986   -0.01032574
     atom    5 type  1   force =     0.00158950   -0.00136132   -0.01033262
     atom    6 type  1   force =    -0.00273906    0.00237627   -0.00272186
     atom    7 type  1   force =     0.00079640   -0.00179503    0.00060896
     atom    8 type  1   force =     0.00166780    0.00014415    0.00044411
     atom    9 type  1   force =    -0.00166780   -0.00014415    0.00044411
     atom   10 type  1   force =    -0.00002078   -0.00295675   -0.00320508
     atom   11 type  1   force =     0.00003012    0.00200298   -0.01028660
     atom   12 type  1   force =    -0.00158950    0.00136132   -0.01033262
     atom   13 type  1   force =    -0.00167955   -0.00131986   -0.01032574
     atom   14 type  1   force =    -0.00003012   -0.00200298   -0.01028660
     atom   15 type  1   force =     0.00002078    0.00295675   -0.00320508
     atom   16 type  1   force =    -0.00180150    0.00011687    0.00049850
     atom   17 type  1   force =     0.00013071    0.00023639    0.00139239
     atom   18 type  1   force =    -0.00079640    0.00179503    0.00060896
     atom   19 type  1   force =     0.00273906   -0.00237627   -0.00272186
     atom   20 type  1   force =     0.00015890   -0.00015917   -0.00019783
     atom   21 type  1   force =    -0.00015890    0.00015917   -0.00019783
     atom   22 type  1   force =     0.00285349    0.00218852   -0.00261162
     atom   23 type  1   force =    -0.00058082   -0.00176710    0.00081607
     atom   24 type  1   force =    -0.00013071   -0.00023639    0.00139239
     atom   25 type  1   force =    -0.00393867    0.00333827    0.01110926
     atom   26 type  1   force =     0.00156857    0.00478684    0.01109939
     atom   27 type  1   force =     0.00479857    0.00127338    0.01114114
     atom   28 type  1   force =     0.00393867   -0.00333827    0.01110926
     atom   29 type  1   force =    -0.00156857   -0.00478684    0.01109939
     atom   30 type  1   force =    -0.00479857   -0.00127338    0.01114114
     atom   31 type  2   force =     0.00093432   -0.00120040    0.00083295
     atom   32 type  2   force =    -0.00045648   -0.00116949    0.00083239
     atom   33 type  2   force =    -0.00162068   -0.00057012    0.00090620
     atom   34 type  2   force =    -0.00093432    0.00120040    0.00083295
     atom   35 type  2   force =     0.00045648    0.00116949    0.00083239
     atom   36 type  2   force =     0.00162068    0.00057012    0.00090620

     Total force =     0.041591     Total SCF correction =     0.002069

     number of scf cycles    =   3
     number of bfgs steps    =   2

     energy   old            =    -351.2497394162 Ry
     energy   new            =    -351.2518141140 Ry

     CASE: energy  _new < energy  _old

     new trust radius        =       0.0230253861 bohr
     new conv_thr            =       0.0000010000 Ry


ATOMIC_POSITIONS (angstrom)
C        1.230067705   0.000933540   0.001286901
C        0.001752196   0.710258737   0.002029197
C        0.003215306   2.132633152  -0.005555862
C        1.230402890   2.840541119  -0.025309411
C        1.230321970   4.260713670  -0.025306654
C        0.003022788   4.968610303  -0.005701335
C        0.001703495   6.391239845   0.001305870
C        1.229969677   7.100460431   0.001767540
C        3.690030323   0.000947880   0.001767540
C        2.460106245   0.713956736  -0.006166656
C        2.460089995   2.131047156  -0.025696370
C        3.689678030   2.840694641  -0.025306654
C        3.689597110   4.260867192  -0.025309411
C        2.459910005   4.970361155  -0.025696370
C        2.459893755   6.387451575  -0.006166656
C        3.689932295   7.100474771   0.001286901
C        6.149998155   0.000061260   0.001773828
C        4.918296505   0.710168466   0.001305870
C        4.916977212   2.132798008  -0.005701335
C        6.149974279   2.841159554   0.001433802
C        6.150025721   4.260248757   0.001433802
C        4.916784694   4.968775160  -0.005555862
C        4.918247804   6.391149574   0.002029197
C        6.150001845   7.101347051   0.001773828
C        3.447025786   2.564004772   3.027384933
C        2.098505586   2.203275840   3.027389675
C        1.111842727   3.189886173   3.027423782
C        1.472974214   4.537403539   3.027384933
C        2.821494414   4.898132471   3.027389675
C        3.808157273   3.911522138   3.027423782
H        4.213038886   1.797059636   3.000591507
H        1.818049234   1.156033063   3.000585282
H        0.065141297   2.908550698   3.000763973
H        0.706961114   5.304348675   3.000591507
H        3.101950766   5.945375248   3.000585282
H        4.854858703   4.192857613   3.000763973



     Writing output data file batch_graph+benzene.save/
     NEW-OLD atomic charge density approx. for the potential

     negative rho (up, down):  2.090E-04 0.000E+00

     total cpu time spent up to now is      693.4 secs

     Self-consistent Calculation

     iteration #  1     ecut=    32.00 Ry     beta= 0.50
     Davidson diagonalization with overlap
     ethr =  1.00E-06,  avg # of iterations =  4.0

     negative rho (up, down):  2.089E-04 0.000E+00

     total cpu time spent up to now is      745.9 secs

     total energy              =    -351.25435319 Ry
     Harris-Foulkes estimate   =    -351.25484914 Ry
     estimated scf accuracy    <       0.00111894 Ry

     iteration #  2     ecut=    32.00 Ry     beta= 0.50
     Davidson diagonalization with overlap
     ethr =  8.88E-07,  avg # of iterations =  2.0

     negative rho (up, down):  2.104E-04 0.000E+00

     total cpu time spent up to now is      776.3 secs

     total energy              =    -351.25453977 Ry
     Harris-Foulkes estimate   =    -351.25457826 Ry
     estimated scf accuracy    <       0.00014477 Ry

     iteration #  3     ecut=    32.00 Ry     beta= 0.50
     Davidson diagonalization with overlap
     ethr =  1.15E-07,  avg # of iterations =  2.0

     negative rho (up, down):  2.092E-04 0.000E+00

     total cpu time spent up to now is      806.7 secs

     total energy              =    -351.25456134 Ry
     Harris-Foulkes estimate   =    -351.25457014 Ry
     estimated scf accuracy    <       0.00003949 Ry

     iteration #  4     ecut=    32.00 Ry     beta= 0.50
     Davidson diagonalization with overlap
     ethr =  3.13E-08,  avg # of iterations =  2.2

     negative rho (up, down):  2.110E-04 0.000E+00

     total cpu time spent up to now is      835.6 secs

     total energy              =    -351.25456817 Ry
     Harris-Foulkes estimate   =    -351.25457060 Ry
     estimated scf accuracy    <       0.00001142 Ry

     iteration #  5     ecut=    32.00 Ry     beta= 0.50
     Davidson diagonalization with overlap
     ethr =  9.07E-09,  avg # of iterations =  2.2

     negative rho (up, down):  2.103E-04 0.000E+00

     total cpu time spent up to now is      864.0 secs

     total energy              =    -351.25457040 Ry
     Harris-Foulkes estimate   =    -351.25457057 Ry
     estimated scf accuracy    <       0.00000115 Ry

     iteration #  6     ecut=    32.00 Ry     beta= 0.50
     Davidson diagonalization with overlap
     ethr =  9.14E-10,  avg # of iterations =  2.2

     negative rho (up, down):  2.091E-04 0.000E+00

     total cpu time spent up to now is      893.5 secs

     End of self-consistent calculation

          k = 0.0000 0.0000 0.0000 ( 31971 PWs)   bands (ev):

   -21.9409 -20.4870 -20.4834 -20.0129 -20.0041 -19.5384 -18.6039 -18.6017
   -18.5873 -18.5865 -16.8395 -16.8132 -16.7302 -15.6633 -15.1024 -15.0975
   -15.0753 -15.0728 -13.2648 -13.2439 -13.1187 -13.1143 -13.1029 -13.0965
   -12.9766 -12.9686 -11.3536 -10.3119 -10.2864 -10.0312  -9.9448  -9.9428
    -9.7065  -9.3033  -9.1162  -9.1099  -9.1096  -9.1058  -8.9730  -8.9356
    -8.9186  -8.7572  -8.6604  -8.4035  -8.2421  -7.8404  -7.7400  -7.6191
    -7.6166  -7.0561  -6.7937  -6.7660  -6.2535  -6.2161  -6.1560  -6.0973
    -5.6488  -5.6376  -4.9009  -4.4607  -4.3588  -2.4324  -2.4270  -2.3591
    -2.3540  -0.7525  -0.0379   0.4325   0.4685   0.6857   1.3056   1.3363
     1.3835   1.4809   1.5865   1.9916

          k = 0.0000 0.0722 0.0000 ( 31929 PWs)   bands (ev):

   -21.8491 -21.1184 -19.9233 -19.9160 -19.6863 -19.5346 -19.2132 -19.1917
   -17.8367 -17.8230 -17.6159 -16.8134 -16.8104 -15.9632 -15.9537 -14.6731
   -14.5628 -14.5545 -13.7197 -13.7056 -13.2546 -13.2345 -12.4548 -12.4464
   -12.3953 -12.3776 -11.5777 -11.3455 -10.7693 -10.7470 -10.1534 -10.1509
    -9.9299  -9.7079  -9.3025  -9.1247  -8.8814  -8.6702  -8.6592  -8.6254
    -8.6062  -8.4505  -8.4396  -8.3684  -8.1825  -7.7927  -7.6453  -7.4417
    -7.1106  -6.9732  -6.9243  -6.7819  -6.7048  -6.6748  -6.0027  -5.8407
    -5.4439  -5.4137  -5.2967  -4.4587  -4.4288  -3.3901  -3.3785  -1.4271
    -1.4193  -0.1453   0.1024   0.2593   0.3316   0.6627   0.7053   0.8162
     1.3182   1.8003   1.8545   2.2175

          k = 0.0000-0.1443 0.0000 ( 31940 PWs)   bands (ev):

   -21.5786 -21.5701 -19.6761 -19.6617 -19.6495 -19.6452 -19.5063 -18.7122
   -18.7067 -16.9571 -16.9464 -16.9339 -16.9290 -16.7958 -16.7856 -14.1858
   -14.1820 -14.1756 -14.1675 -13.2668 -13.2352 -13.1781 -13.1687 -11.5875
   -11.5752 -11.5642 -11.5590 -11.3696 -11.3569 -11.3497 -11.3442 -11.3166
    -9.7101  -9.6325  -9.6185  -9.3021  -8.6946  -8.6562  -8.6172  -8.6074
    -8.3194  -8.3087  -8.3030  -8.2908  -7.6363  -7.3689  -7.3613  -7.3321
    -7.0045  -6.9729  -6.9404  -6.7624  -6.7223  -6.3666  -6.3411  -6.3275
    -6.2568  -4.7590  -4.7502  -4.4253  -4.4138  -4.1587  -4.1262  -0.5483
    -0.5399  -0.4794  -0.4649   0.3393   0.4411   0.5806   0.8865   1.1838
     1.2525   1.3987   1.5114   2.0831

          k = 0.0833 0.0000 0.0000 ( 31951 PWs)   bands (ev):

   -21.8185 -20.8466 -20.3675 -20.3636 -19.5572 -19.4125 -19.3955 -18.9429
   -17.5888 -17.5875 -16.8237 -16.8215 -16.6408 -16.3006 -15.8159 -15.5622
   -14.9111 -14.6536 -14.6524 -14.1604 -13.2407 -13.2383 -12.4355 -12.1942
   -11.7405 -11.5192 -11.5183 -11.3175 -10.2077  -9.9704  -9.9702  -9.8939
    -9.7128  -9.4804  -9.3037  -9.1858  -9.1851  -9.0093  -9.0090  -8.8789
    -8.7759  -8.7343  -8.6118  -8.2447  -8.1241  -8.0737  -8.0731  -7.6893
    -7.3076  -7.1016  -6.8920  -6.7532  -6.7246  -6.4746  -6.1227  -5.8982
    -5.3391  -5.2909  -4.7833  -4.4578  -4.3242  -3.6542  -3.3928  -1.4530
    -1.1215  -0.7852  -0.1774  -0.0910   0.1590   0.5978   0.6533   0.8605
     1.5258   1.7477   2.1244   2.2048

          k = 0.0833 0.0722 0.0000 ( 31951 PWs)   bands (ev):

   -21.7269 -20.9975 -20.7560 -20.0376 -19.5873 -19.5128 -18.8556 -18.6246
   -18.1671 -17.5058 -16.9196 -16.8168 -16.8056 -16.6296 -16.2643 -15.1704
   -14.6802 -14.5821 -14.0661 -13.9449 -13.2393 -13.2384 -12.2507 -12.2368
   -12.0194 -11.8056 -11.5419 -11.3107 -10.7559 -10.3709  -9.7950  -9.7550
    -9.7226  -9.7026  -9.3886  -9.3031  -9.1827  -9.0008  -8.8237  -8.7975
    -8.6728  -8.6647  -8.5331  -8.5023  -8.1849  -7.8391  -7.5485  -7.3701
    -7.3552  -6.9977  -6.7691  -6.7493  -6.4605  -6.4181  -6.1739  -6.0731
    -5.7936  -5.2158  -4.8371  -4.4725  -4.4010  -3.9728  -3.7581  -1.0990
    -0.7845  -0.6325  -0.1563   0.2759   0.3662   0.6044   0.8134   0.9889
     1.4630   1.6206   1.6721   1.9313

          k = 0.0833-0.1443 0.0000 ( 31876 PWs)   bands (ev):

   -21.4568 -21.4483 -20.4888 -20.4818 -19.5425 -18.6035 -18.6028 -18.5891
   -18.5840 -17.6922 -17.6858 -16.8258 -16.8109 -16.3376 -16.3291 -15.2833
   -15.2790 -13.2510 -13.2486 -13.1226 -13.1103 -13.0984 -13.0975 -13.0335
   -13.0279 -11.4202 -11.4190 -11.3006 -10.7302 -10.7274  -9.9513  -9.9464
    -9.7150  -9.5024  -9.4754  -9.3039  -9.1189  -9.1125  -9.1122  -9.1018
    -8.7693  -8.7005  -8.3293  -8.2846  -7.6205  -7.6066  -7.3013  -7.2807
    -7.1377  -6.7750  -6.7656  -6.6358  -6.6323  -6.2429  -6.1900  -6.1628
    -6.1319  -5.2282  -5.1690  -4.5971  -4.4472  -4.0894  -4.0049  -0.9767
    -0.9543   0.2518   0.3326   0.4804   0.5575   0.6154   1.0736   1.3145
     1.3216   1.3673   1.4099   1.4159

          k =-0.1667 0.0000 0.0000 ( 31854 PWs)   bands (ev):

   -21.4532 -21.4520 -20.0133 -20.0103 -20.0097 -20.0001 -19.5288 -17.6915
   -17.6868 -16.8606 -16.8325 -16.7415 -16.7232 -16.3413 -16.3297 -15.6687
   -15.6671 -15.2768 -15.2757 -13.2496 -13.2239 -13.0376 -13.0322 -11.4161
   -11.4140 -11.2769 -10.7430 -10.7213 -10.3098 -10.3034 -10.2838 -10.2784
    -9.7226  -9.4968  -9.4861  -9.3039  -8.9700  -8.9680  -8.9517  -8.9354
    -8.9347  -8.9157  -8.7543  -8.7126  -7.9472  -7.7423  -7.7411  -7.7406
    -7.3118  -7.2841  -6.9462  -6.7508  -6.7219  -6.6279  -6.6242  -5.3043
    -5.1228  -4.8904  -4.8789  -4.5756  -4.2610  -4.1748  -3.9681  -0.9949
    -0.9268  -0.7870  -0.7157   0.2685   0.4237   0.5748   0.6142   0.7353
     0.8769   1.3576   1.4026   2.2048

          k =-0.1667 0.0722 0.0000 ( 31908 PWs)   bands (ev):

   -21.3619 -21.3608 -20.6356 -20.6356 -19.5450 -19.2085 -19.1991 -17.6097
   -17.6048 -17.1809 -17.1771 -17.0245 -17.0114 -16.8104 -16.7997 -15.2672
   -15.2657 -14.3310 -14.3296 -13.5930 -13.5884 -13.2399 -13.2215 -11.5385
   -11.5382 -11.2742 -10.8462 -10.8446 -10.6398 -10.6180  -9.7735  -9.7571
    -9.7202  -9.4003  -9.3816  -9.3104  -9.2784  -9.2725  -9.2376  -9.2363
    -8.7849  -8.7756  -8.4669  -8.4417  -7.9326  -7.9215  -7.6715  -7.6494
    -7.2136  -6.8826  -6.7875  -6.7012  -6.6679  -6.6613  -6.6517  -5.2748
    -5.0943  -4.9724  -4.9295  -4.7933  -4.7323  -4.2582  -4.2493  -0.6357
    -0.5724  -0.3476  -0.2763   0.1235   0.2388   0.6539   0.6721   0.6961
     0.9906   1.4845   1.5148   1.7026

          k =-0.1667-0.1443 0.0000 ( 31784 PWs)   bands (ev):

   -21.0931 -21.0916 -21.0842 -21.0841 -19.5405 -18.2589 -18.2519 -18.2495
   -18.2484 -17.3751 -17.3693 -17.3684 -17.3624 -16.8192 -16.8080 -14.4841
   -14.4776 -14.4726 -14.4697 -13.2436 -13.2274 -12.9422 -12.9379 -12.9372
   -12.9323 -11.2674 -10.3275 -10.3220 -10.3082 -10.2980  -9.9608  -9.9549
    -9.9352  -9.9325  -9.7243  -9.3055  -9.1422  -9.1250  -9.0907  -9.0106
    -8.6743  -8.6275  -8.4136  -8.4052  -8.3946  -8.3889  -7.1158  -7.0883
    -7.0796  -7.0729  -7.0682  -6.7657  -6.7370  -5.9081  -5.8012  -5.7573
    -5.7237  -5.2251  -4.9946  -4.9743  -4.9511  -4.3608  -4.2654  -0.3408
    -0.2017  -0.1692  -0.1479   0.4579   0.6466   0.7752   1.0226   1.0550
     1.0568   1.1729   1.2560   1.3899

          k =-0.0833 0.0722 0.0000 ( 31951 PWs)   bands (ev):

   -21.7269 -20.9975 -20.7560 -20.0376 -19.5874 -19.5128 -18.8556 -18.6246
   -18.1671 -17.5059 -16.9203 -16.8167 -16.8048 -16.6298 -16.2641 -15.1702
   -14.6806 -14.5823 -14.0657 -13.9452 -13.2388 -13.2384 -12.2508 -12.2374
   -12.0195 -11.8054 -11.5421 -11.3103 -10.7555 -10.3705  -9.7948  -9.7552
    -9.7231  -9.7041  -9.3882  -9.3030  -9.1829  -9.0000  -8.8243  -8.7982
    -8.6756  -8.6610  -8.5307  -8.5018  -8.1855  -7.8340  -7.5481  -7.3701
    -7.3616  -7.0092  -6.7845  -6.7388  -6.4597  -6.4001  -6.1720  -6.0738
    -5.7927  -5.2201  -4.8388  -4.4704  -4.4019  -3.9729  -3.7573  -1.1008
    -0.7840  -0.6327  -0.1610   0.2702   0.3700   0.6100   0.8183   0.9886
     1.4483   1.5968   1.6621   1.9304

     the Fermi energy is    -2.3931 ev

!    total energy              =    -351.25457064 Ry
     Harris-Foulkes estimate   =    -351.25457059 Ry
     estimated scf accuracy    <       0.00000006 Ry

     The total energy is the sum of the following terms:

     one-electron contribution =   -4802.27329691 Ry
     hartree contribution      =    2421.03262371 Ry
     xc contribution           =    -112.32977003 Ry
     ewald contribution        =    2142.31864281 Ry
     smearing contrib. (-TS)   =      -0.00277021 Ry

     convergence has been achieved in   6 iterations

     Forces acting on atoms (cartesian axes, Ry/au):

     atom    1 type  1   force =     0.00116853   -0.00051097    0.00029558
     atom    2 type  1   force =    -0.00067463    0.00100872    0.00023718
     atom    3 type  1   force =    -0.00283182   -0.00181270   -0.00250164
     atom    4 type  1   force =     0.00074466    0.00104392   -0.00877640
     atom    5 type  1   force =     0.00068294   -0.00102360   -0.00880126
     atom    6 type  1   force =    -0.00263956    0.00198703   -0.00261541
     atom    7 type  1   force =    -0.00056835   -0.00126070    0.00029083
     atom    8 type  1   force =     0.00121061    0.00060857    0.00006383
     atom    9 type  1   force =    -0.00121061   -0.00060857    0.00006383
     atom   10 type  1   force =    -0.00005442   -0.00284732   -0.00315076
     atom   11 type  1   force =     0.00002271    0.00063473   -0.00888180
     atom   12 type  1   force =    -0.00068294    0.00102360   -0.00880126
     atom   13 type  1   force =    -0.00074466   -0.00104392   -0.00877640
     atom   14 type  1   force =    -0.00002271   -0.00063473   -0.00888180
     atom   15 type  1   force =     0.00005442    0.00284732   -0.00315076
     atom   16 type  1   force =    -0.00116853    0.00051097    0.00029558
     atom   17 type  1   force =    -0.00002322    0.00063870    0.00194252
     atom   18 type  1   force =     0.00056835    0.00126070    0.00029083
     atom   19 type  1   force =     0.00263956   -0.00198703   -0.00261541
     atom   20 type  1   force =     0.00015271   -0.00020774   -0.00108668
     atom   21 type  1   force =    -0.00015271    0.00020774   -0.00108668
     atom   22 type  1   force =     0.00283182    0.00181270   -0.00250164
     atom   23 type  1   force =     0.00067463   -0.00100872    0.00023718
     atom   24 type  1   force =     0.00002322   -0.00063870    0.00194252
     atom   25 type  1   force =    -0.00436117    0.00344940    0.00947141
     atom   26 type  1   force =     0.00196589    0.00497709    0.00945806
     atom   27 type  1   force =     0.00482033    0.00129760    0.00949857
     atom   28 type  1   force =     0.00436117   -0.00344940    0.00947141
     atom   29 type  1   force =    -0.00196589   -0.00497709    0.00945806
     atom   30 type  1   force =    -0.00482033   -0.00129760    0.00949857
     atom   31 type  2   force =     0.00196982   -0.00220766    0.00149504
     atom   32 type  2   force =    -0.00083792   -0.00254684    0.00149677
     atom   33 type  2   force =    -0.00286152   -0.00084505    0.00156413
     atom   34 type  2   force =    -0.00196982    0.00220766    0.00149504
     atom   35 type  2   force =     0.00083792    0.00254684    0.00149677
     atom   36 type  2   force =     0.00286152    0.00084505    0.00156413

     Total force =     0.037106     Total SCF correction =     0.000245

     number of scf cycles    =   4
     number of bfgs steps    =   3

     energy   old            =    -351.2518141140 Ry
     energy   new            =    -351.2545706376 Ry

     CASE: energy  _new < energy  _old

     new trust radius        =       0.0345380792 bohr
     new conv_thr            =       0.0000009499 Ry


ATOMIC_POSITIONS (angstrom)
C        1.230529685   0.000909708   0.001990862
C        0.001565216   0.710757157   0.002852344
C        0.003178231   2.132873676  -0.009557579
C        1.230398977   2.840684282  -0.042190498
C        1.230263185   4.260528233  -0.042207245
C        0.002993245   4.968384786  -0.009838969
C        0.001581042   6.390583099   0.001943796
C        1.230481231   7.100551246   0.002513211
C        3.689518769   0.000857065   0.002513211
C        2.460122167   0.714026768  -0.010831246
C        2.460141650   2.131071181  -0.042770047
C        3.689736815   2.840880078  -0.042207245
C        3.689601023   4.260724029  -0.042190498
C        2.459858350   4.970337130  -0.042770047
C        2.459877833   6.387381543  -0.010831246
C        3.689470315   7.100498603   0.001990862
C        6.149923376   0.000602221   0.003928287
C        4.918418958   0.710825212   0.001943796
C        4.917006755   2.133023525  -0.009838969
C        6.150003440   2.841015550   0.001171999
C        6.149996560   4.260392761   0.001171999
C        4.916821769   4.968534635  -0.009557579
C        4.918434784   6.390651154   0.002852344
C        6.150076624   7.100806090   0.003928287
C        3.445992317   2.564773835   3.045601662
C        2.098880531   2.204571818   3.045597398
C        1.112745826   3.190267193   3.045674244
C        1.474007683   4.536634476   3.045601662
C        2.821119469   4.896836493   3.045597398
C        3.807254174   3.911141118   3.045674244
H        4.211703278   1.797960212   3.001944881
H        1.818300992   1.157761476   3.001937073
H        0.066628863   2.908721546   3.002239827
H        0.708296722   5.303448099   3.001944881
H        3.101699008   5.943646835   3.001937073
H        4.853371137   4.192686765   3.002239827



     Writing output data file batch_graph+benzene.save/
     NEW-OLD atomic charge density approx. for the potential

     negative rho (up, down):  2.091E-04 0.000E+00

     total cpu time spent up to now is      908.4 secs

     Self-consistent Calculation

     iteration #  1     ecut=    32.00 Ry     beta= 0.50
     Davidson diagonalization with overlap
     ethr =  1.00E-06,  avg # of iterations =  4.1

     negative rho (up, down):  2.082E-04 0.000E+00

     total cpu time spent up to now is      966.5 secs

     total energy              =    -351.25753222 Ry
     Harris-Foulkes estimate   =    -351.25863209 Ry
     estimated scf accuracy    <       0.00250064 Ry

     iteration #  2     ecut=    32.00 Ry     beta= 0.50
     Davidson diagonalization with overlap
     ethr =  1.98E-06,  avg # of iterations =  4.0

     negative rho (up, down):  2.100E-04 0.000E+00

     total cpu time spent up to now is      998.2 secs

     total energy              =    -351.25794801 Ry
     Harris-Foulkes estimate   =    -351.25801892 Ry
     estimated scf accuracy    <       0.00030169 Ry

     iteration #  3     ecut=    32.00 Ry     beta= 0.50
     Davidson diagonalization with overlap
     ethr =  2.39E-07,  avg # of iterations =  3.4

     negative rho (up, down):  2.102E-04 0.000E+00

     total cpu time spent up to now is     1028.7 secs

     total energy              =    -351.25799251 Ry
     Harris-Foulkes estimate   =    -351.25800186 Ry
     estimated scf accuracy    <       0.00006860 Ry

     iteration #  4     ecut=    32.00 Ry     beta= 0.50
     Davidson diagonalization with overlap
     ethr =  5.44E-08,  avg # of iterations =  2.0

     negative rho (up, down):  2.138E-04 0.000E+00

     total cpu time spent up to now is     1058.2 secs

     total energy              =    -351.25800255 Ry
     Harris-Foulkes estimate   =    -351.25800573 Ry
     estimated scf accuracy    <       0.00001650 Ry

     iteration #  5     ecut=    32.00 Ry     beta= 0.50
     Davidson diagonalization with overlap
     ethr =  1.31E-08,  avg # of iterations =  2.1

     negative rho (up, down):  2.105E-04 0.000E+00

     total cpu time spent up to now is     1086.8 secs

     total energy              =    -351.25800590 Ry
     Harris-Foulkes estimate   =    -351.25800644 Ry
     estimated scf accuracy    <       0.00000272 Ry

     iteration #  6     ecut=    32.00 Ry     beta= 0.50
     Davidson diagonalization with overlap
     ethr =  2.16E-09,  avg # of iterations =  2.1

     negative rho (up, down):  2.078E-04 0.000E+00

     total cpu time spent up to now is     1115.2 secs

     End of self-consistent calculation

          k = 0.0000 0.0000 0.0000 ( 31971 PWs)   bands (ev):

   -21.9484 -20.4934 -20.4919 -20.0193 -20.0122 -19.5530 -18.6111 -18.6077
   -18.5972 -18.5951 -16.8421 -16.8180 -16.7413 -15.6719 -15.1079 -15.1036
   -15.0857 -15.0842 -13.2647 -13.2428 -13.1259 -13.1214 -13.1118 -13.1078
   -12.9837 -12.9773 -11.3577 -10.3175 -10.2967 -10.0361  -9.9546  -9.9495
    -9.6952  -9.3105  -9.1229  -9.1195  -9.1188  -9.1158  -8.9807  -8.9436
    -8.9299  -8.7590  -8.6618  -8.3993  -8.2450  -7.8432  -7.7448  -7.6276
    -7.6215  -7.0850  -6.7922  -6.7612  -6.2511  -6.2188  -6.1634  -6.1133
    -5.6554  -5.6477  -4.8974  -4.4773  -4.3847  -2.4348  -2.4310  -2.3730
    -2.3690  -0.7548  -0.0355   0.4449   0.4688   0.6799   1.2979   1.3267
     1.3690   1.4582   1.5861   1.9957

          k = 0.0000 0.0722 0.0000 ( 31929 PWs)   bands (ev):

   -21.8566 -21.1260 -19.9297 -19.9238 -19.6932 -19.5491 -19.2197 -19.2020
   -17.8433 -17.8319 -17.6236 -16.8183 -16.8162 -15.9709 -15.9629 -14.6816
   -14.5701 -14.5636 -13.7262 -13.7149 -13.2560 -13.2342 -12.4621 -12.4552
   -12.4019 -12.3875 -11.5868 -11.3497 -10.7754 -10.7573 -10.1619 -10.1597
    -9.9328  -9.6964  -9.3098  -9.1274  -8.8893  -8.6693  -8.6601  -8.6327
    -8.6172  -8.4581  -8.4499  -8.3783  -8.1910  -7.7886  -7.6475  -7.4478
    -7.1248  -6.9809  -6.9259  -6.7857  -6.7025  -6.6946  -6.0127  -5.8490
    -5.4399  -5.4131  -5.3054  -4.4751  -4.4501  -3.4012  -3.3913  -1.4337
    -1.4269  -0.1415   0.1050   0.2689   0.3314   0.6418   0.6910   0.8103
     1.3220   1.7972   1.8508   2.2169

          k = 0.0000-0.1443 0.0000 ( 31940 PWs)   bands (ev):

   -21.5850 -21.5787 -19.6816 -19.6658 -19.6583 -19.6537 -19.5237 -18.7208
   -18.7141 -16.9607 -16.9503 -16.9416 -16.9392 -16.8034 -16.7957 -14.1907
   -14.1907 -14.1834 -14.1782 -13.2673 -13.2348 -13.1857 -13.1796 -11.5926
   -11.5828 -11.5747 -11.5687 -11.3753 -11.3639 -11.3585 -11.3517 -11.3256
    -9.6989  -9.6320  -9.6245  -9.3093  -8.6936  -8.6566  -8.6225  -8.6188
    -8.3263  -8.3167  -8.3136  -8.3022  -7.6309  -7.3692  -7.3663  -7.3390
    -7.0145  -6.9851  -6.9638  -6.7658  -6.7189  -6.3664  -6.3474  -6.3369
    -6.2696  -4.7530  -4.7418  -4.4323  -4.4237  -4.1875  -4.1579  -0.5481
    -0.5406  -0.4857  -0.4746   0.3410   0.4420   0.5774   0.8869   1.1775
     1.2528   1.3903   1.4923   2.0787

          k = 0.0833 0.0000 0.0000 ( 31951 PWs)   bands (ev):

   -21.8260 -20.8540 -20.3739 -20.3721 -19.5682 -19.4210 -19.4057 -18.9509
   -17.5961 -17.5956 -16.8276 -16.8262 -16.6506 -16.3092 -15.8240 -15.5709
   -14.9201 -14.6620 -14.6597 -14.1682 -13.2422 -13.2378 -12.4439 -12.2019
   -11.7485 -11.5280 -11.5264 -11.3219 -10.2170  -9.9807  -9.9801  -9.8949
    -9.7014  -9.4884  -9.3109  -9.1947  -9.1938  -9.0187  -9.0175  -8.8813
    -8.7837  -8.7360  -8.6102  -8.2440  -8.1275  -8.0822  -8.0807  -7.6994
    -7.3134  -7.1065  -6.9102  -6.7567  -6.7208  -6.4855  -6.1308  -5.9082
    -5.3367  -5.2922  -4.7810  -4.4755  -4.3490  -3.6685  -3.4045  -1.4606
    -1.1275  -0.7886  -0.1720  -0.0938   0.1611   0.5860   0.6424   0.8549
     1.5284   1.7484   2.1159   2.2009

[...]

     CASE: energy  _new < energy  _old

     new trust radius        =       0.0004823829 bohr
     new conv_thr            =       0.0000000100 Ry


ATOMIC_POSITIONS (angstrom)
C        1.230304333   0.000363664  -0.187012558
C        0.000362614   0.710442547  -0.187466892
C        0.000729955   2.131125900  -0.199067879
C        1.230391365   2.840719531  -0.217530286
C        1.230351752   4.260688736  -0.217606939
C        0.000700304   4.970278447  -0.199216332
C        0.000316768   6.390967178  -0.187585361
C        1.230277370   7.101045110  -0.187021995
C        3.689722630   0.000363201  -0.187021995
C        2.460012279   0.711097139  -0.196774370
C        2.460002924   2.131048443  -0.216755995
C        3.689648248   2.840719575  -0.217606939
C        3.689608635   4.260688780  -0.217530286
C        2.459997076   4.970359868  -0.216755995
C        2.459987721   6.390311173  -0.196774370
C        3.689695667   7.101044647  -0.187012558
C        6.150010549   0.000302943  -0.180527196
C        4.919683232   0.710441133  -0.187585361
C        4.919299696   2.131129864  -0.199216332
C        6.150012299   2.840555656  -0.196285845
C        6.149987701   4.260852655  -0.196285845
C        4.919270045   4.970282411  -0.199067879
C        4.919637386   6.390965764  -0.187466892
C        6.149989451   7.101105368  -0.180527196
C        3.446937436   2.564334590   3.399766120
C        2.098988214   2.203621080   3.399908448
C        1.111895238   3.189639997   3.400011995
C        1.473062564   4.537073721   3.399766120
C        2.821011786   4.897787231   3.399908448
C        3.808104762   3.911768314   3.400011995
H        4.214639250   1.795041632   3.390600997
H        1.817565124   1.153887746   3.391064731
H        0.062512318   2.907026989   3.391499358
H        0.705360750   5.306366679   3.390600997
H        3.102434876   5.947520565   3.391064731
H        4.857487682   4.194381322   3.391499358



     Writing output data file batch_graph+benzene.save/
     NEW-OLD atomic charge density approx. for the potential

     negative rho (up, down):  2.002E-04 0.000E+00

     total cpu time spent up to now is     8941.6 secs

     Self-consistent Calculation

     iteration #  1     ecut=    32.00 Ry     beta= 0.50
     Davidson diagonalization with overlap
     ethr =  1.00E-06,  avg # of iterations =  2.0

     Threshold (ethr) on eigenvalues was too large:
     Diagonalizing with lowered threshold

     Davidson diagonalization with overlap
     ethr =  3.11E-10,  avg # of iterations =  3.0

     negative rho (up, down):  2.002E-04 0.000E+00

     total cpu time spent up to now is     9000.6 secs

     total energy              =    -351.28178059 Ry
     Harris-Foulkes estimate   =    -351.28178086 Ry
     estimated scf accuracy    <       0.00000064 Ry

     iteration #  2     ecut=    32.00 Ry     beta= 0.50
     Davidson diagonalization with overlap
     ethr =  5.10E-10,  avg # of iterations =  2.0

     negative rho (up, down):  2.002E-04 0.000E+00

     total cpu time spent up to now is     9032.2 secs

     total energy              =    -351.28178070 Ry
     Harris-Foulkes estimate   =    -351.28178074 Ry
     estimated scf accuracy    <       0.00000012 Ry

     iteration #  3     ecut=    32.00 Ry     beta= 0.50
     Davidson diagonalization with overlap
     ethr =  9.75E-11,  avg # of iterations =  2.1

     negative rho (up, down):  2.002E-04 0.000E+00

     total cpu time spent up to now is     9062.5 secs

     total energy              =    -351.28178072 Ry
     Harris-Foulkes estimate   =    -351.28178073 Ry
     estimated scf accuracy    <       0.00000003 Ry

     iteration #  4     ecut=    32.00 Ry     beta= 0.50
     Davidson diagonalization with overlap
     ethr =  2.33E-11,  avg # of iterations =  2.4

     negative rho (up, down):  2.002E-04 0.000E+00

     total cpu time spent up to now is     9091.2 secs

     End of self-consistent calculation

          k = 0.0000 0.0000 0.0000 ( 31971 PWs)   bands (ev):

   -21.8586 -20.4027 -20.4026 -19.9250 -19.9246 -19.5689 -18.5176 -18.5164
   -18.5136 -18.5130 -16.8287 -16.8274 -16.6779 -15.5864 -15.0109 -15.0093
   -15.0091 -15.0077 -13.2650 -13.2421 -13.0350 -13.0345 -13.0337 -13.0335
   -12.8949 -12.8944 -11.3353 -10.2219 -10.2200  -9.9386  -9.8698  -9.8675
    -9.6895  -9.3324  -9.0398  -9.0387  -9.0319  -9.0317  -8.8951  -8.8556
    -8.8543  -8.7189  -8.6544  -8.2284  -8.1959  -7.6865  -7.6436  -7.5424
    -7.5416  -7.2806  -6.8132  -6.7734  -6.0965  -6.0908  -6.0857  -6.0778
    -5.5722  -5.5673  -4.7458  -4.6116  -4.5548  -2.3135  -2.3110  -2.3054
    -2.3029  -0.6172  -0.1439   0.3714   0.4531   0.6686   1.4153   1.4217
     1.4286   1.4613   1.4670   1.8699

          k = 0.0000 0.0722 0.0000 ( 31929 PWs)   bands (ev):

   -21.7669 -21.0362 -19.8355 -19.8353 -19.6000 -19.5660 -19.1257 -19.1245
   -17.7497 -17.7489 -17.5349 -16.8285 -16.8272 -15.8817 -15.8811 -14.5961
   -14.4806 -14.4802 -13.6339 -13.6330 -13.2630 -13.2419 -12.3734 -12.3731
   -12.3096 -12.3085 -11.5025 -11.3304 -10.6814 -10.6797 -10.0765 -10.0765
    -9.8279  -9.6908  -9.3323  -8.9723  -8.8044  -8.7098  -8.6533  -8.5445
    -8.5432  -8.3722  -8.3709  -8.2953  -8.1063  -7.6036  -7.5439  -7.3562
    -7.2119  -6.8964  -6.8116  -6.8006  -6.7319  -6.7236  -5.9319  -5.7633
    -5.2806  -5.2792  -5.2077  -4.6087  -4.6066  -3.3229  -3.3215  -1.3261
    -1.3253  -0.0120   0.0309   0.3840   0.3953   0.5478   0.5965   0.7980
     1.2136   1.6732   1.8292   2.2132

          k = 0.0000-0.1443 0.0000 ( 31940 PWs)   bands (ev):

   -21.4989 -21.4853 -19.5850 -19.5753 -19.5730 -19.5605 -19.5454 -18.6332
   -18.6271 -16.8592 -16.8565 -16.8545 -16.8501 -16.8226 -16.8206 -14.1043
   -14.1024 -14.0951 -14.0947 -13.2618 -13.2422 -13.1038 -13.1037 -11.4986
   -11.4961 -11.4907 -11.4903 -11.3262 -11.2768 -11.2734 -11.2726 -11.2706
    -9.6924  -9.5098  -9.4966  -9.3322  -8.7307  -8.6523  -8.5416  -8.5316
    -8.2352  -8.2348  -8.2306  -8.2276  -7.4523  -7.2567  -7.2503  -7.2395
    -7.1210  -6.9247  -6.9081  -6.8030  -6.7628  -6.2633  -6.2517  -6.2291
    -6.2211  -4.6727  -4.6587  -4.3332  -4.3307  -4.2901  -4.2794  -0.4006
    -0.3944  -0.3898  -0.3848   0.2298   0.3870   0.4709   0.7969   1.1706
     1.2238   1.4908   1.5214   1.9832

          k = 0.0833 0.0000 0.0000 ( 31951 PWs)   bands (ev):

   -21.7363 -20.7642 -20.2829 -20.2828 -19.5687 -19.3320 -19.3310 -18.8639
   -17.5071 -17.5070 -16.8357 -16.8274 -16.5735 -16.2244 -15.7378 -15.4854
   -14.8350 -14.5743 -14.5738 -14.0812 -13.2488 -13.2452 -12.3590 -12.1157
   -11.6625 -11.4419 -11.4415 -11.3039 -10.1330  -9.8964  -9.8953  -9.7901
    -9.6964  -9.4034  -9.3331  -9.1105  -9.1103  -8.9350  -8.9349  -8.7593
    -8.7105  -8.6975  -8.6105  -8.0880  -8.0581  -7.9970  -7.9967  -7.6169
    -7.3338  -6.9777  -6.9399  -6.7819  -6.7648  -6.4256  -6.0454  -5.8275
    -5.1813  -5.1683  -4.6738  -4.6166  -4.4732  -3.6068  -3.3317  -1.3550
    -1.0201  -0.6571   0.0024   0.0295   0.0532   0.4408   0.4907   0.8421
     1.4084   1.6261   2.0727   2.1823

          k = 0.0833 0.0722 0.0000 ( 31951 PWs)   bands (ev):

   -21.6447 -20.9152 -20.6736 -19.9540 -19.5688 -19.4780 -18.7764 -18.5450
   -18.0869 -17.4246 -16.8406 -16.8299 -16.8157 -16.5586 -16.1883 -15.0911
   -14.6014 -14.5051 -13.9889 -13.8659 -13.2480 -13.2446 -12.1731 -12.1610
   -11.9408 -11.7290 -11.4666 -11.2992 -10.6788 -10.2941  -9.6982  -9.6862
    -9.6748  -9.6397  -9.3333  -9.3108  -9.1061  -8.8427  -8.7423  -8.7237
    -8.6951  -8.5919  -8.5163  -8.4295  -8.1114  -7.7051  -7.4754  -7.3309
    -7.2910  -7.1117  -6.7783  -6.7709  -6.3847  -6.3405  -6.0782  -6.0002
    -5.6853  -5.0723  -4.7045  -4.6139  -4.5210  -3.9698  -3.7225  -0.9937
    -0.6732  -0.5066  -0.0121   0.1789   0.4069   0.4585   0.7569   0.9695
     1.3616   1.5167   1.7363   1.8836

          k = 0.0833-0.1443 0.0000 ( 31876 PWs)   bands (ev):

   -21.3771 -21.3636 -20.4093 -20.3960 -19.5679 -18.5220 -18.5187 -18.5120
   -18.5081 -17.6113 -17.6054 -16.8358 -16.8282 -16.2617 -16.2558 -15.2022
   -15.2013 -13.2482 -13.2438 -13.0384 -13.0332 -13.0331 -13.0305 -12.9599
   -12.9557 -11.3436 -11.3369 -11.2937 -10.6548 -10.6518  -9.8741  -9.8686
    -9.6990  -9.3646  -9.3542  -9.3332  -9.0418  -9.0373  -9.0330  -9.0311
    -8.7365  -8.7261  -8.2126  -8.2109  -7.5434  -7.5369  -7.3117  -7.2225
    -7.2125  -6.7786  -6.7682  -6.5615  -6.5558  -6.0953  -6.0905  -6.0869
    -6.0790  -5.0719  -5.0612  -4.6374  -4.6019  -4.0734  -4.0530  -0.8499
    -0.8478   0.3679   0.3978   0.4048   0.5233   0.5567   0.9884   1.3445
     1.3906   1.4163   1.4190   1.4446

          k =-0.1667 0.0000 0.0000 ( 31854 PWs)   bands (ev):

   -21.3749 -21.3658 -19.9293 -19.9287 -19.9205 -19.9204 -19.5656 -17.6086
   -17.6082 -16.8448 -16.8272 -16.6774 -16.6764 -16.2640 -16.2556 -15.5885
   -15.5880 -15.2044 -15.1951 -13.2503 -13.2315 -12.9597 -12.9596 -11.3384
   -11.3382 -11.2698 -10.6603 -10.6489 -10.2207 -10.2190 -10.2187 -10.2165
    -9.7070  -9.3652  -9.3545  -9.3336  -8.8943  -8.8939  -8.8612  -8.8599
    -8.8557  -8.8539  -8.8003  -8.7023  -7.7183  -7.6516  -7.6498  -7.6378
    -7.2423  -7.2264  -7.2145  -6.7752  -6.7501  -6.5588  -6.5514  -5.0873
    -5.0457  -4.7619  -4.7272  -4.5967  -4.5286  -4.0850  -4.0463  -0.8465
    -0.8456  -0.6268  -0.6111   0.3875   0.4715   0.4782   0.5128   0.5640
     0.7583   1.3433   1.3716   2.1135

          k =-0.1667 0.0722 0.0000 ( 31908 PWs)   bands (ev):

   -21.2837 -21.2745 -20.5577 -20.5486 -19.5669 -19.1312 -19.1218 -17.5266
   -17.5260 -17.1000 -17.0920 -16.9318 -16.9301 -16.8411 -16.8260 -15.1875
   -15.1871 -14.2576 -14.2490 -13.5111 -13.5105 -13.2502 -13.2297 -11.4664
   -11.4600 -11.2657 -10.7703 -10.7701 -10.5570 -10.5457  -9.7085  -9.6901
    -9.6802  -9.3341  -9.2587  -9.2482  -9.2042  -9.2006  -9.1635  -9.1634
    -8.8017  -8.7207  -8.3830  -8.3813  -7.8523  -7.8513  -7.5883  -7.5797
    -7.3180  -6.7942  -6.7663  -6.7164  -6.6944  -6.5927  -6.5891  -5.0436
    -4.9998  -4.8056  -4.7863  -4.7066  -4.6468  -4.5371  -4.4954  -0.4695
    -0.4532  -0.1971  -0.1912   0.2793   0.3327   0.4764   0.5189   0.5533
     0.8754   1.4633   1.4882   1.6017

          k =-0.1667-0.1443 0.0000 ( 31784 PWs)   bands (ev):

   -21.0156 -21.0097 -21.0054 -20.9931 -19.5665 -18.1793 -18.1739 -18.1711
   -18.1644 -17.2962 -17.2905 -17.2831 -17.2784 -16.8427 -16.8275 -14.4038
   -14.3979 -14.3958 -14.3907 -13.2508 -13.2281 -12.8677 -12.8673 -12.8599
   -12.8589 -11.2608 -10.2457 -10.2376 -10.2370 -10.2243  -9.8801  -9.8762
    -9.8647  -9.8613  -9.7093  -9.3343  -8.9616  -8.9454  -8.9286  -8.9275
    -8.7613  -8.6985  -8.3288  -8.3272  -8.3247  -8.3196  -7.3091  -7.0063
    -7.0063  -7.0032  -6.9997  -6.7794  -6.7404  -5.6980  -5.6958  -5.6816
    -5.6735  -4.9583  -4.8908  -4.8901  -4.8730  -4.5921  -4.5539  -0.1012
    -0.0772  -0.0737  -0.0602   0.4361   0.4996   0.6605   1.0171   1.1347
     1.1427   1.1555   1.1900   1.2925

          k =-0.0833 0.0722 0.0000 ( 31951 PWs)   bands (ev):

   -21.6447 -20.9152 -20.6736 -19.9540 -19.5688 -19.4780 -18.7764 -18.5450
   -18.0869 -17.4246 -16.8410 -16.8296 -16.8156 -16.5586 -16.1883 -15.0912
   -14.6013 -14.5051 -13.9889 -13.8659 -13.2479 -13.2446 -12.1732 -12.1609
   -11.9407 -11.7291 -11.4666 -11.2992 -10.6789 -10.2942  -9.6979  -9.6866
    -9.6748  -9.6396  -9.3333  -9.3108  -9.1060  -8.8423  -8.7432  -8.7240
    -8.6948  -8.5918  -8.5155  -8.4294  -8.1113  -7.7041  -7.4754  -7.3312
    -7.2910  -7.1147  -6.7757  -6.7733  -6.3848  -6.3380  -6.0776  -6.0000
    -5.6856  -5.0730  -4.7058  -4.6127  -4.5207  -3.9698  -3.7225  -0.9939
    -0.6729  -0.5071  -0.0127   0.1756   0.4065   0.4617   0.7572   0.9692
     1.3434   1.4902   1.7354   1.8865

     the Fermi energy is    -2.3082 ev

!    total energy              =    -351.28178073 Ry
     Harris-Foulkes estimate   =    -351.28178073 Ry
     estimated scf accuracy    <          7.5E-09 Ry

     The total energy is the sum of the following terms:

     one-electron contribution =   -4550.60125799 Ry
     hartree contribution      =    2295.38543704 Ry
     xc contribution           =    -112.23121880 Ry
     ewald contribution        =    2016.16807931 Ry
     smearing contrib. (-TS)   =      -0.00282028 Ry

     convergence has been achieved in   4 iterations

     Forces acting on atoms (cartesian axes, Ry/au):

     atom    1 type  1   force =    -0.00001104   -0.00001974   -0.00001231
     atom    2 type  1   force =    -0.00000609    0.00000184   -0.00001347
     atom    3 type  1   force =    -0.00000595    0.00001375   -0.00002507
     atom    4 type  1   force =    -0.00001385    0.00000089   -0.00002218
     atom    5 type  1   force =     0.00005510   -0.00000126   -0.00000593
     atom    6 type  1   force =    -0.00002587   -0.00000884   -0.00000369
     atom    7 type  1   force =     0.00001033   -0.00000462    0.00000046
     atom    8 type  1   force =    -0.00000501    0.00001704   -0.00000117
     atom    9 type  1   force =     0.00000501   -0.00001704   -0.00000117
     atom   10 type  1   force =     0.00000015   -0.00000722    0.00002007
     atom   11 type  1   force =     0.00003288   -0.00001976    0.00001906
     atom   12 type  1   force =    -0.00005510    0.00000126   -0.00000593
     atom   13 type  1   force =     0.00001385   -0.00000089   -0.00002218
     atom   14 type  1   force =    -0.00003288    0.00001976    0.00001906
     atom   15 type  1   force =    -0.00000015    0.00000722    0.00002007
     atom   16 type  1   force =     0.00001104    0.00001974   -0.00001231
     atom   17 type  1   force =     0.00000440    0.00000755    0.00000502
     atom   18 type  1   force =    -0.00001033    0.00000462    0.00000046
     atom   19 type  1   force =     0.00002587    0.00000884   -0.00000369
     atom   20 type  1   force =    -0.00000497   -0.00002355    0.00003616
     atom   21 type  1   force =     0.00000497    0.00002355    0.00003616
     atom   22 type  1   force =     0.00000595   -0.00001375   -0.00002507
     atom   23 type  1   force =     0.00000609   -0.00000184   -0.00001347
     atom   24 type  1   force =    -0.00000440   -0.00000755    0.00000502
     atom   25 type  1   force =     0.00003807    0.00000251   -0.00000602
     atom   26 type  1   force =     0.00001760   -0.00002642   -0.00001203
     atom   27 type  1   force =     0.00001607   -0.00002053   -0.00000315
     atom   28 type  1   force =    -0.00003807   -0.00000251   -0.00000602
     atom   29 type  1   force =    -0.00001760    0.00002642   -0.00001203
     atom   30 type  1   force =    -0.00001607    0.00002053   -0.00000315
     atom   31 type  2   force =     0.00004207    0.00000413    0.00001102
     atom   32 type  2   force =     0.00004787   -0.00003410   -0.00000688
     atom   33 type  2   force =     0.00001990   -0.00005601    0.00002012
     atom   34 type  2   force =    -0.00004207   -0.00000413    0.00001102
     atom   35 type  2   force =    -0.00004787    0.00003410   -0.00000688
     atom   36 type  2   force =    -0.00001990    0.00005601    0.00002012

     Total force =     0.000218     Total SCF correction =     0.000220
     SCF correction compared to forces is large: reduce conv_thr to get better values

     bfgs converged in  41 scf cycles and  39 bfgs steps
     (criteria: energy <  1.0E-05 Ry, force <  1.0E-04 Ry/Bohr)

     End of BFGS Geometry Optimization

     Final energy   =    -351.2817807262 Ry
Begin final coordinates

ATOMIC_POSITIONS (angstrom)
C        1.230304333   0.000363664  -0.187012558
C        0.000362614   0.710442547  -0.187466892
C        0.000729955   2.131125900  -0.199067879
C        1.230391365   2.840719531  -0.217530286
C        1.230351752   4.260688736  -0.217606939
C        0.000700304   4.970278447  -0.199216332
C        0.000316768   6.390967178  -0.187585361
C        1.230277370   7.101045110  -0.187021995
C        3.689722630   0.000363201  -0.187021995
C        2.460012279   0.711097139  -0.196774370
C        2.460002924   2.131048443  -0.216755995
C        3.689648248   2.840719575  -0.217606939
C        3.689608635   4.260688780  -0.217530286
C        2.459997076   4.970359868  -0.216755995
C        2.459987721   6.390311173  -0.196774370
C        3.689695667   7.101044647  -0.187012558
C        6.150010549   0.000302943  -0.180527196
C        4.919683232   0.710441133  -0.187585361
C        4.919299696   2.131129864  -0.199216332
C        6.150012299   2.840555656  -0.196285845
C        6.149987701   4.260852655  -0.196285845
C        4.919270045   4.970282411  -0.199067879
C        4.919637386   6.390965764  -0.187466892
C        6.149989451   7.101105368  -0.180527196
C        3.446937436   2.564334590   3.399766120
C        2.098988214   2.203621080   3.399908448
C        1.111895238   3.189639997   3.400011995
C        1.473062564   4.537073721   3.399766120
C        2.821011786   4.897787231   3.399908448
C        3.808104762   3.911768314   3.400011995
H        4.214639250   1.795041632   3.390600997
H        1.817565124   1.153887746   3.391064731
H        0.062512318   2.907026989   3.391499358
H        0.705360750   5.306366679   3.390600997
H        3.102434876   5.947520565   3.391064731
H        4.857487682   4.194381322   3.391499358
End final coordinates



     Writing output data file batch_graph+benzene.save/

     init_run     :     19.95s CPU     20.28s WALL (       1 calls)
     electrons    :   8352.38s CPU   8474.28s WALL (      41 calls)
     update_pot   :    139.89s CPU    143.10s WALL (      40 calls)
     forces       :    429.33s CPU    433.54s WALL (      41 calls)

     Called by init_run:
     wfcinit      :     15.62s CPU     15.79s WALL (       1 calls)
     potinit      :      2.34s CPU      2.44s WALL (       1 calls)
     hinit0       :      1.13s CPU      1.14s WALL (       1 calls)

     Called by electrons:
     c_bands      :   6965.40s CPU   7041.54s WALL (     256 calls)
     sum_band     :    849.52s CPU    867.94s WALL (     256 calls)
     v_of_rho     :    442.55s CPU    463.42s WALL (     289 calls)
     newd         :    163.65s CPU    172.81s WALL (     289 calls)
     mix_rho      :      9.43s CPU      9.68s WALL (     256 calls)

     Called by c_bands:
     init_us_2    :     28.18s CPU     28.27s WALL (    5540 calls)
     cegterg      :   6905.39s CPU   6980.82s WALL (    2560 calls)

     Called by sum_band:
     sum_band:bec :      1.00s CPU      1.00s WALL (    2560 calls)
     addusdens    :    116.59s CPU    125.34s WALL (     256 calls)

     Called by *egterg:
     h_psi        :   3475.62s CPU   3533.10s WALL (    9437 calls)
     s_psi        :   1033.85s CPU   1036.53s WALL (    9437 calls)
     g_psi        :      5.49s CPU      5.53s WALL (    6867 calls)
     cdiaghg      :    237.01s CPU    237.63s WALL (    8947 calls)

     Called by h_psi:
     h_psi:pot    :   3467.66s CPU   3518.19s WALL (    9437 calls)
     h_psi:calbec :   1103.75s CPU   1107.32s WALL (    9437 calls)
     vloc_psi     :   1324.35s CPU   1368.83s WALL (    9437 calls)
     add_vuspsi   :   1039.51s CPU   1042.01s WALL (    9437 calls)

     General routines
     calbec       :   1797.24s CPU   1802.84s WALL (   13637 calls)
     fft          :    290.40s CPU    300.98s WALL (   18255 calls)
     ffts         :      1.31s CPU      1.37s WALL (     545 calls)
     fftw         :   1483.36s CPU   1533.42s WALL ( 1205962 calls)
     interpolate  :      5.66s CPU      5.85s WALL (     289 calls)

     Parallel routines
     fft_scatt_xy :    160.26s CPU    166.39s WALL ( 1224762 calls)
     fft_scatt_yz :    251.89s CPU    272.28s WALL ( 1224762 calls)

     PWSCF        :      2h29m CPU      2h31m WALL


   This run was terminated on:  20: 9: 5   1Dec2020            

=------------------------------------------------------------------------------=
   JOB DONE.
=------------------------------------------------------------------------------=
