
     Program PWSCF v.6.4.1 starts on 24Oct2020 at 10: 6:57 

     This program is part of the open-source Quantum ESPRESSO suite
     for quantum simulation of materials; please cite
         "P. Giannozzi et al., J. Phys.:Condens. Matter 21 395502 (2009);
         "P. Giannozzi et al., J. Phys.:Condens. Matter 29 465901 (2017);
          URL http://www.quantum-espresso.org", 
     in publications or presentations arising from this work. More details at
     http://www.quantum-espresso.org/quote

     Parallel version (MPI), running on     8 processors

     MPI processes distributed on     1 nodes
     R & G space division:  proc/nbgrp/npool/nimage =       8
     Waiting for input...
     Reading input from standard input

     Current dimensions of program PWSCF are:
     Max number of different atomic species (ntypx) = 10
     Max number of k-points (npk) =  40000
     Max angular momentum in pseudopotentials (lmaxx) =  3

     IMPORTANT: XC functional enforced from input :
     Exchange-correlation      = VDW-DF ( 1  4  4  0 1 0)
     Any further DFT definition will be discarded
     Please, verify this is what you really want

               file C.pbe-rrkjus.UPF: wavefunction(s)  2S 2P renormalized

     Subspace diagonalization in iterative solution of the eigenvalue problem:
     a serial algorithm will be used

     Message from routine setup:
     DEPRECATED: symmetry with ibrav=0, use correct ibrav instead

     Parallelization info
     --------------------
     sticks:   dense  smooth     PW     G-vecs:    dense   smooth      PW
     Min         714     285     79               126154    31889    4649
     Max         715     286     80               126163    31900    4658
     Sum        5713    2283    637              1009261   255153   37237



     bravais-lattice index     =            0
     lattice parameter (alat)  =       4.6487  a.u.
     unit-cell volume          =   10440.3175 (a.u.)^3
     number of atoms/cell      =           36
     number of atomic types    =            2
     number of electrons       =       126.00
     number of Kohn-Sham states=           76
     kinetic-energy cutoff     =      32.0000  Ry
     charge density cutoff     =     320.0000  Ry
     convergence threshold     =      1.0E-06
     mixing beta               =       0.5000
     number of iterations used =            8  plain     mixing
     Exchange-correlation      = VDW-DF ( 1  4  4  0 1 0)
     nstep                     =          200


     celldm(1)=   4.648726  celldm(2)=   0.000000  celldm(3)=   0.000000
     celldm(4)=   0.000000  celldm(5)=   0.000000  celldm(6)=   0.000000

     crystal axes: (cart. coord. in units of alat)
               a(1) = (   3.000000   0.000000   0.000000 )  
               a(2) = (   0.000000   3.464102   0.000000 )  
               a(3) = (   0.000000   0.000000  10.000000 )  

     reciprocal axes: (cart. coord. in units 2 pi/alat)
               b(1) = (  0.333333  0.000000  0.000000 )  
               b(2) = (  0.000000  0.288675  0.000000 )  
               b(3) = (  0.000000  0.000000  0.100000 )  


     PseudoPot. # 1 for C  read from file:
     ../pseudopotentials/C.pbe-rrkjus.UPF
     MD5 check sum: 00fb224312de0c5b6853bd333518df6f
     Pseudo is Ultrasoft, Zval =  4.0
     Generated by new atomic code, or converted to UPF format
     Using radial grid of  627 points,  4 beta functions with: 
                l(1) =   0
                l(2) =   0
                l(3) =   1
                l(4) =   1
     Q(r) pseudized with 0 coefficients 


     PseudoPot. # 2 for H  read from file:
     ../pseudopotentials/H.pbe-rrkjus_psl.1.0.0.UPF
     MD5 check sum: 3f4114867bd07edc7f1424d066fc1888
     Pseudo is Ultrasoft, Zval =  1.0
     Generated using "atomic" code by A. Dal Corso v.6.3MaX
     Using radial grid of  929 points,  2 beta functions with: 
                l(1) =   0
                l(2) =   0
     Q(r) pseudized with 0 coefficients 


     vdW kernel table read from file vdW_kernel_table
     MD5 check sum: 48e77a2e26edf626eeb0eaa751ad5cac

     atomic species   valence    mass     pseudopotential
        C              4.00    12.01070     C ( 1.00)
        H              1.00     1.00790     H ( 1.00)

      2 Sym. Ops. (no inversion) found ( 1 have fractional translation)



   Cartesian axes

     site n.     atom                  positions (alat units)
         1           C   tau(   1) = (   0.5000000   0.0000000   0.0000000  )
         2           C   tau(   2) = (   0.0000000   0.2886752   0.0000000  )
         3           C   tau(   3) = (   0.0000000   0.8660253   0.0000000  )
         4           C   tau(   4) = (   0.5000000   1.1547005   0.0000000  )
         5           C   tau(   5) = (   0.5000000   1.7320509   0.0000000  )
         6           C   tau(   6) = (   0.0000000   2.0207262   0.0000000  )
         7           C   tau(   7) = (   0.0000000   2.5980762   0.0000000  )
         8           C   tau(   8) = (   0.5000000   2.8867514   0.0000000  )
         9           C   tau(   9) = (   1.5000001   0.0000000   0.0000000  )
        10           C   tau(  10) = (   1.0000001   0.2886752   0.0000000  )
        11           C   tau(  11) = (   1.0000001   0.8660253   0.0000000  )
        12           C   tau(  12) = (   1.5000001   1.1547005   0.0000000  )
        13           C   tau(  13) = (   1.5000001   1.7320509   0.0000000  )
        14           C   tau(  14) = (   1.0000001   2.0207262   0.0000000  )
        15           C   tau(  15) = (   1.0000001   2.5980762   0.0000000  )
        16           C   tau(  16) = (   1.5000001   2.8867514   0.0000000  )
        17           C   tau(  17) = (   2.5000002   0.0000000   0.0000000  )
        18           C   tau(  18) = (   2.0000002   0.2886752   0.0000000  )
        19           C   tau(  19) = (   2.0000002   0.8660253   0.0000000  )
        20           C   tau(  20) = (   2.5000002   1.1547005   0.0000000  )
        21           C   tau(  21) = (   2.5000002   1.7320509   0.0000000  )
        22           C   tau(  22) = (   2.0000002   2.0207262   0.0000000  )
        23           C   tau(  23) = (   2.0000002   2.5980762   0.0000000  )
        24           C   tau(  24) = (   2.5000002   2.8867514   0.0000000  )
        25           C   tau(  25) = (   1.9009416   1.9084599   1.2195123  )
        26           C   tau(  26) = (   1.3533103   1.7617668   1.2195123  )
        27           C   tau(  27) = (   0.9523659   2.1627111   1.2195123  )
        28           C   tau(  28) = (   1.0990586   2.7103425   1.2195123  )
        29           C   tau(  29) = (   1.6466900   2.8570356   1.2195123  )
        30           C   tau(  30) = (   2.0476343   2.4560912   1.2195123  )
        31           H   tau(  31) = (   2.2144676   1.5949339   1.2195123  )
        32           H   tau(  32) = (   1.2385082   1.3335578   1.2195123  )
        33           H   tau(  33) = (   0.5241565   2.0479095   1.2195123  )
        34           H   tau(  34) = (   0.7855326   3.0238689   1.2195123  )
        35           H   tau(  35) = (   1.7614920   3.2852450   1.2195123  )
        36           H   tau(  36) = (   2.4758437   2.5708933   1.2195123  )

     number of k points=    10  gaussian smearing, width (Ry)=  0.0200
                       cart. coord. in units 2pi/alat
        k(    1) = (   0.0000000   0.0000000   0.0000000), wk =   0.1250000
        k(    2) = (   0.0000000   0.0721688   0.0000000), wk =   0.2500000
        k(    3) = (   0.0000000  -0.1443376   0.0000000), wk =   0.1250000
        k(    4) = (   0.0833333   0.0000000   0.0000000), wk =   0.2500000
        k(    5) = (   0.0833333   0.0721688   0.0000000), wk =   0.2500000
        k(    6) = (   0.0833333  -0.1443376   0.0000000), wk =   0.2500000
        k(    7) = (  -0.1666667   0.0000000   0.0000000), wk =   0.1250000
        k(    8) = (  -0.1666667   0.0721688   0.0000000), wk =   0.2500000
        k(    9) = (  -0.1666667  -0.1443376   0.0000000), wk =   0.1250000
        k(   10) = (  -0.0833333   0.0721688   0.0000000), wk =   0.2500000

     Dense  grid:  1009261 G-vectors     FFT dimensions: (  80,  96, 270)

     Smooth grid:   255153 G-vectors     FFT dimensions: (  54,  60, 180)

     Estimated max dynamical RAM per process >     428.17 MB

     Estimated total dynamical RAM >       3.35 GB

     Initial potential from superposition of free atoms

     starting charge  125.99836, renormalised to  126.00000

     negative rho (up, down):  2.493E-04 0.000E+00


     %%%%%%%%%%%%%%%%%%%%%%%%%%%%%%%%%%%%%%%%%%%%%%%%%%%%%%%%%%%%%%%%%%%%%%%%
     %                                                                      %
     % You are using vdW-DF, which was implemented by the Thonhauser group. %
     % Please cite the following two papers that made this development      %
     % possible and the two reviews that describe the various versions:     %
     %                                                                      %
     %   T. Thonhauser et al., PRL 115, 136402 (2015).                      %
     %   T. Thonhauser et al., PRB 76, 125112 (2007).                       %
     %   K. Berland et al., Rep. Prog. Phys. 78, 066501 (2015).             %
     %   D.C. Langreth et al., J. Phys.: Condens. Matter 21, 084203 (2009). %
     %                                                                      %
     %                                                                      %
     % If you are calculating the stress with vdW-DF, please also cite:     %
     %                                                                      %
     %   R. Sabatini et al., J. Phys.: Condens. Matter 24, 424209 (2012).   %
     %                                                                      %
     %%%%%%%%%%%%%%%%%%%%%%%%%%%%%%%%%%%%%%%%%%%%%%%%%%%%%%%%%%%%%%%%%%%%%%%%


     Starting wfcs are  126 randomized atomic wfcs

     total cpu time spent up to now is       43.8 secs

     Self-consistent Calculation

     iteration #  1     ecut=    32.00 Ry     beta= 0.50
     Davidson diagonalization with overlap
     ethr =  1.00E-02,  avg # of iterations =  2.0

     negative rho (up, down):  2.114E-04 0.000E+00

     total cpu time spent up to now is      123.4 secs

     total energy              =    -350.85931595 Ry
     Harris-Foulkes estimate   =    -352.96161304 Ry
     estimated scf accuracy    <       4.24983307 Ry

     iteration #  2     ecut=    32.00 Ry     beta= 0.50
     Davidson diagonalization with overlap
     ethr =  3.37E-03,  avg # of iterations =  5.5

     negative rho (up, down):  5.159E-04 0.000E+00

     total cpu time spent up to now is      190.6 secs

     total energy              =    -351.19707535 Ry
     Harris-Foulkes estimate   =    -351.35264604 Ry
     estimated scf accuracy    <       0.39620732 Ry

     iteration #  3     ecut=    32.00 Ry     beta= 0.50
     Davidson diagonalization with overlap
     ethr =  3.14E-04,  avg # of iterations =  9.9

     negative rho (up, down):  4.312E-04 0.000E+00

     total cpu time spent up to now is      266.4 secs

     total energy              =    -351.23471422 Ry
     Harris-Foulkes estimate   =    -351.25332585 Ry
     estimated scf accuracy    <       0.05572523 Ry

     iteration #  4     ecut=    32.00 Ry     beta= 0.50
     Davidson diagonalization with overlap
     ethr =  4.42E-05,  avg # of iterations =  6.1

     negative rho (up, down):  2.843E-04 0.000E+00

     total cpu time spent up to now is      339.4 secs

     total energy              =    -351.24343281 Ry
     Harris-Foulkes estimate   =    -351.24956378 Ry
     estimated scf accuracy    <       0.01857805 Ry

     iteration #  5     ecut=    32.00 Ry     beta= 0.50
     Davidson diagonalization with overlap
     ethr =  1.47E-05,  avg # of iterations =  3.0

     negative rho (up, down):  3.003E-04 0.000E+00

     total cpu time spent up to now is      401.9 secs

     total energy              =    -351.24716988 Ry
     Harris-Foulkes estimate   =    -351.24743853 Ry
     estimated scf accuracy    <       0.00252896 Ry

     iteration #  6     ecut=    32.00 Ry     beta= 0.50
     Davidson diagonalization with overlap
     ethr =  2.01E-06,  avg # of iterations =  6.3

     negative rho (up, down):  2.425E-04 0.000E+00

     total cpu time spent up to now is      469.8 secs

     total energy              =    -351.24752856 Ry
     Harris-Foulkes estimate   =    -351.24760895 Ry
     estimated scf accuracy    <       0.00027878 Ry

     iteration #  7     ecut=    32.00 Ry     beta= 0.50
     Davidson diagonalization with overlap
     ethr =  2.21E-07,  avg # of iterations =  2.3

     negative rho (up, down):  2.228E-04 0.000E+00

     total cpu time spent up to now is      529.4 secs

     total energy              =    -351.24758044 Ry
     Harris-Foulkes estimate   =    -351.24757863 Ry
     estimated scf accuracy    <       0.00002096 Ry

     iteration #  8     ecut=    32.00 Ry     beta= 0.50
     Davidson diagonalization with overlap
     ethr =  1.66E-08,  avg # of iterations =  2.4

     negative rho (up, down):  2.147E-04 0.000E+00

     total cpu time spent up to now is      599.1 secs

     total energy              =    -351.24758459 Ry
     Harris-Foulkes estimate   =    -351.24758586 Ry
     estimated scf accuracy    <       0.00000404 Ry

     iteration #  9     ecut=    32.00 Ry     beta= 0.50
     Davidson diagonalization with overlap
     ethr =  3.21E-09,  avg # of iterations =  2.2

     negative rho (up, down):  2.115E-04 0.000E+00

     total cpu time spent up to now is      658.5 secs

     End of self-consistent calculation

          k = 0.0000 0.0000 0.0000 ( 31971 PWs)   bands (ev):

   -21.9274 -20.4740 -20.4696 -20.0004 -19.9908 -19.5467 -18.5832 -18.5800
   -18.5795 -18.5788 -16.8416 -16.8067 -16.7115 -15.6528 -15.0730 -15.0719
   -15.0717 -15.0715 -13.2521 -13.2299 -13.0993 -13.0983 -13.0860 -13.0814
   -12.9574 -12.9571 -11.3320 -10.2802 -10.2798 -10.0238  -9.9338  -9.9317
    -9.6617  -9.3143  -9.1072  -9.1070  -9.0855  -9.0850  -8.9537  -8.9166
    -8.9164  -8.7427  -8.6385  -8.4109  -8.2341  -7.8472  -7.7254  -7.6000
    -7.5988  -7.0270  -6.7848  -6.7532  -6.2490  -6.2182  -6.1394  -6.0749
    -5.6284  -5.6274  -4.9071  -4.4385  -4.3232  -2.4037  -2.4030  -2.3521
    -2.3518  -0.7551  -0.0532   0.4229   0.4761   0.6931   1.3294   1.3471
     1.4169   1.5111   1.5840   1.9841

          k = 0.0000 0.0722 0.0000 ( 31929 PWs)   bands (ev):

   -21.8356 -21.1048 -19.9127 -19.9013 -19.6776 -19.5387 -19.1910 -19.1836
   -17.8160 -17.8156 -17.6020 -16.8101 -16.8062 -15.9435 -15.9430 -14.6615
   -14.5440 -14.5427 -13.6981 -13.6969 -13.2395 -13.2166 -12.4379 -12.4355
   -12.3705 -12.3686 -11.5656 -11.3235 -10.7410 -10.7400 -10.1380 -10.1377
    -9.9240  -9.6633  -9.3132  -9.1189  -8.8632  -8.6597  -8.6405  -8.6040
    -8.6004  -8.4337  -8.4304  -8.3536  -8.1634  -7.8109  -7.6328  -7.4367
    -7.0975  -6.9535  -6.9119  -6.7711  -6.6921  -6.6392  -5.9931  -5.8183
    -5.4535  -5.4091  -5.2836  -4.4366  -4.4039  -3.3670  -3.3575  -1.4139
    -1.4096  -0.1564   0.0893   0.2446   0.3400   0.7050   0.7363   0.8242
     1.3061   1.7945   1.8595   2.2161

          k = 0.0000-0.1443 0.0000 ( 31940 PWs)   bands (ev):

   -21.5713 -21.5502 -19.6801 -19.6469 -19.6455 -19.6201 -19.5004 -18.6968
   -18.6937 -16.9476 -16.9430 -16.9205 -16.9136 -16.7819 -16.7757 -14.1736
   -14.1724 -14.1533 -14.1508 -13.2557 -13.2174 -13.1702 -13.1474 -11.5627
   -11.5612 -11.5486 -11.5477 -11.3566 -11.3439 -11.3388 -11.3266 -11.2908
    -9.6663  -9.6294  -9.6099  -9.3127  -8.6837  -8.6361  -8.6104  -8.5751
    -8.3034  -8.2918  -8.2917  -8.2812  -7.6606  -7.3580  -7.3476  -7.3307
    -6.9902  -6.9672  -6.9068  -6.7468  -6.7048  -6.3653  -6.3276  -6.2991
    -6.2329  -4.7794  -4.7652  -4.4102  -4.4024  -4.1078  -4.0770  -0.5509
    -0.5400  -0.4639  -0.4522   0.3329   0.4482   0.6016   0.8733   1.1922
     1.2485   1.4115   1.5391   2.0774

          k = 0.0833 0.0000 0.0000 ( 31951 PWs)   bands (ev):

   -21.8050 -20.8330 -20.3547 -20.3498 -19.5691 -19.3984 -19.3787 -18.9284
   -17.5750 -17.5738 -16.8259 -16.8150 -16.6220 -16.2855 -15.7985 -15.5516
   -14.9004 -14.6381 -14.6363 -14.1432 -13.2262 -13.2203 -12.4232 -12.1776
   -11.7218 -11.5035 -11.5026 -11.2949 -10.1963  -9.9591  -9.9571  -9.8893
    -9.6683  -9.4626  -9.3144  -9.1720  -9.1700  -8.9954  -8.9937  -8.8682
    -8.7572  -8.7181  -8.6028  -8.2471  -8.1162  -8.0547  -8.0537  -7.6785
    -7.3081  -7.0930  -6.8679  -6.7363  -6.7116  -6.4536  -6.1007  -5.8887
    -5.3444  -5.2907  -4.7887  -4.4335  -4.2887  -3.6301  -3.3670  -1.4460
    -1.1088  -0.7864  -0.1837  -0.0825   0.1461   0.6261   0.6865   0.8677
     1.5188   1.7429   2.1356   2.2087

          k = 0.0833 0.0722 0.0000 ( 31951 PWs)   bands (ev):

   -21.7135 -20.9838 -20.7425 -20.0246 -19.5885 -19.5072 -18.8412 -18.6101
   -18.1528 -17.4920 -16.9125 -16.8148 -16.7957 -16.6122 -16.2494 -15.1542
   -14.6639 -14.5699 -14.0536 -13.9292 -13.2239 -13.2213 -12.2336 -12.2222
   -12.0023 -11.7923 -11.5293 -11.2881 -10.7395 -10.3551  -9.7884  -9.7435
    -9.7026  -9.6645  -9.3715  -9.3130  -9.1643  -8.9943  -8.8121  -8.7829
    -8.6600  -8.6476  -8.5244  -8.4905  -8.1706  -7.8403  -7.5362  -7.3552
    -7.3470  -6.9671  -6.7602  -6.7354  -6.4417  -6.4072  -6.1634  -6.0590
    -5.7869  -5.2159  -4.8467  -4.4564  -4.3757  -3.9349  -3.7308  -1.0875
    -0.7809  -0.6243  -0.1606   0.2655   0.3619   0.6302   0.8505   0.9970
     1.4514   1.6174   1.6885   1.9535

          k = 0.0833-0.1443 0.0000 ( 31876 PWs)   bands (ev):

   -21.4495 -21.4285 -20.4815 -20.4621 -19.5527 -18.5948 -18.5839 -18.5778
   -18.5658 -17.6774 -17.6726 -16.8208 -16.8098 -16.3271 -16.3094 -15.2661
   -15.2634 -13.2403 -13.2341 -13.1028 -13.1017 -13.0868 -13.0798 -13.0232
   -13.0038 -11.4120 -11.3960 -11.2764 -10.7204 -10.7096  -9.9374  -9.9267
    -9.6705  -9.4997  -9.4674  -9.3147  -9.1109  -9.1014  -9.0902  -9.0788
    -8.7516  -8.6894  -8.3301  -8.2772  -7.6052  -7.5955  -7.2844  -7.2710
    -7.1182  -6.7659  -6.7531  -6.6234  -6.6067  -6.2409  -6.1799  -6.1568
    -6.1110  -5.2329  -5.1600  -4.5966  -4.4289  -4.0587  -3.9601  -0.9736
    -0.9393   0.2291   0.3280   0.4761   0.5773   0.6427   1.0636   1.3291
     1.3434   1.3752   1.4102   1.4470

          k =-0.1667 0.0000 0.0000 ( 31854 PWs)   bands (ev):

   -21.4470 -21.4310 -20.0016 -19.9999 -19.9994 -19.9809 -19.5344 -17.6781
   -17.6725 -16.8602 -16.8355 -16.7268 -16.7017 -16.3333 -16.3024 -15.6525
   -15.6509 -15.2769 -15.2543 -13.2344 -13.2093 -13.0200 -13.0113 -11.4056
   -11.4021 -11.2532 -10.7232 -10.7065 -10.2868 -10.2845 -10.2757 -10.2747
    -9.6783  -9.4930  -9.4791  -9.3145  -8.9587  -8.9577  -8.9192  -8.9188
    -8.9140  -8.9097  -8.7382  -8.6980  -7.9653  -7.7396  -7.7304  -7.7263
    -7.2863  -7.2679  -6.8987  -6.7372  -6.7113  -6.6273  -6.6046  -5.3239
    -5.1091  -4.8956  -4.8902  -4.5689  -4.2042  -4.1617  -3.9160  -0.9973
    -0.9210  -0.7882  -0.7012   0.2616   0.4409   0.5679   0.6379   0.7878
     0.8675   1.3651   1.4084   2.1990

          k =-0.1667 0.0722 0.0000 ( 31908 PWs)   bands (ev):

   -21.3558 -21.3399 -20.6295 -20.6145 -19.5558 -19.2027 -19.1753 -17.5964
   -17.5905 -17.1714 -17.1605 -17.0157 -16.9989 -16.7969 -16.7942 -15.2512
   -15.2498 -14.3290 -14.3071 -13.5775 -13.5721 -13.2207 -13.2068 -11.5357
   -11.5156 -11.2514 -10.8331 -10.8317 -10.6198 -10.6029  -9.7519  -9.7413
    -9.6774  -9.3973  -9.3739  -9.3194  -9.2642  -9.2590  -9.2238  -9.2214
    -8.7737  -8.7609  -8.4643  -8.4351  -7.9138  -7.9087  -7.6475  -7.6357
    -7.2062  -6.8746  -6.7679  -6.6851  -6.6589  -6.6436  -6.6318  -5.2974
    -5.0894  -4.9821  -4.9274  -4.7814  -4.7210  -4.2007  -4.1974  -0.6395
    -0.5667  -0.3468  -0.2691   0.1211   0.2552   0.6490   0.7014   0.7460
     0.9806   1.4948   1.5212   1.6876

          k =-0.1667-0.1443 0.0000 ( 31784 PWs)   bands (ev):

   -21.0909 -21.0791 -21.0741 -21.0545 -19.5508 -18.2513 -18.2447 -18.2291
   -18.2268 -17.3699 -17.3610 -17.3483 -17.3428 -16.8091 -16.8059 -14.4712
   -14.4598 -14.4585 -14.4508 -13.2260 -13.2151 -12.9387 -12.9357 -12.9198
   -12.9020 -11.2442 -10.3161 -10.3053 -10.2926 -10.2706  -9.9500  -9.9390
    -9.9244  -9.9156  -9.6798  -9.3158  -9.1468  -9.1131  -9.0786  -9.0063
    -8.6607  -8.6172  -8.3886  -8.3867  -8.3861  -8.3753  -7.0911  -7.0704
    -7.0664  -7.0643  -7.0505  -6.7536  -6.7260  -5.9167  -5.7962  -5.7485
    -5.6988  -5.2480  -4.9905  -4.9673  -4.9367  -4.3204  -4.2076  -0.3628
    -0.1956  -0.1512  -0.1326   0.4428   0.6869   0.7740   1.0335   1.0672
     1.0723   1.1684   1.3044   1.3781

          k =-0.0833 0.0722 0.0000 ( 31951 PWs)   bands (ev):

   -21.7135 -20.9838 -20.7425 -20.0246 -19.5886 -19.5071 -18.8412 -18.6101
   -18.1528 -17.4921 -16.9138 -16.8122 -16.7967 -16.6125 -16.2492 -15.1544
   -14.6640 -14.5701 -14.0534 -13.9293 -13.2241 -13.2205 -12.2339 -12.2224
   -12.0022 -11.7924 -11.5296 -11.2876 -10.7396 -10.3551  -9.7884  -9.7431
    -9.7027  -9.6663  -9.3710  -9.3131  -9.1643  -8.9934  -8.8121  -8.7844
    -8.6626  -8.6444  -8.5213  -8.4901  -8.1708  -7.8349  -7.5363  -7.3606
    -7.3483  -6.9804  -6.7723  -6.7269  -6.4417  -6.3882  -6.1618  -6.0590
    -5.7860  -5.2205  -4.8489  -4.4523  -4.3775  -3.9354  -3.7299  -1.0893
    -0.7805  -0.6248  -0.1661   0.2599   0.3648   0.6389   0.8556   0.9969
     1.4369   1.5890   1.6811   1.9508

     the Fermi energy is    -2.3777 ev

!    total energy              =    -351.24758485 Ry
     Harris-Foulkes estimate   =    -351.24758522 Ry
     estimated scf accuracy    <       0.00000048 Ry

     The total energy is the sum of the following terms:

     one-electron contribution =   -4816.18089598 Ry
     hartree contribution      =    2428.03419987 Ry
     xc contribution           =    -112.31924681 Ry
     ewald contribution        =    2149.22115401 Ry
     smearing contrib. (-TS)   =      -0.00279594 Ry

     convergence has been achieved in   9 iterations

     Forces acting on atoms (cartesian axes, Ry/au):

     atom    1 type  1   force =     0.00037974    0.00085916    0.00054345
     atom    2 type  1   force =     0.00007200    0.00007575    0.00056566
     atom    3 type  1   force =    -0.00007200   -0.00007575    0.00056566
     atom    4 type  1   force =     0.00051573   -0.00078268    0.00092656
     atom    5 type  1   force =     0.00346135    0.00277331   -0.00250128
     atom    6 type  1   force =    -0.00011279    0.00045805    0.00116195
     atom    7 type  1   force =     0.00011279   -0.00045805    0.00116195
     atom    8 type  1   force =     0.00326310   -0.00298038   -0.00254675
     atom    9 type  1   force =    -0.00008629   -0.00420535   -0.00265823
     atom   10 type  1   force =    -0.00051479   -0.00073439    0.00100403
     atom   11 type  1   force =    -0.00051896    0.00071013    0.00063731
     atom   12 type  1   force =     0.00008629    0.00420535   -0.00265823
     atom   13 type  1   force =     0.00004669   -0.00064437   -0.01273732
     atom   14 type  1   force =    -0.00027034   -0.00076676   -0.01245597
     atom   15 type  1   force =    -0.00027873    0.00068000   -0.01245063
     atom   16 type  1   force =    -0.00004669    0.00064437   -0.01273732
     atom   17 type  1   force =    -0.00051573    0.00078268    0.00092656
     atom   18 type  1   force =     0.00051896   -0.00071013    0.00063731
     atom   19 type  1   force =     0.00051479    0.00073439    0.00100403
     atom   20 type  1   force =    -0.00037974   -0.00085916    0.00054345
     atom   21 type  1   force =    -0.00326310    0.00298038   -0.00254675
     atom   22 type  1   force =     0.00027873   -0.00068000   -0.01245063
     atom   23 type  1   force =     0.00027034    0.00076676   -0.01245597
     atom   24 type  1   force =    -0.00346135   -0.00277331   -0.00250128
     atom   25 type  1   force =     0.00281484   -0.00218629    0.01349047
     atom   26 type  1   force =    -0.00150124   -0.00292389    0.01350208
     atom   27 type  1   force =    -0.00330523   -0.00069739    0.01350126
     atom   28 type  1   force =    -0.00281484    0.00218629    0.01349047
     atom   29 type  1   force =     0.00150124    0.00292389    0.01350208
     atom   30 type  1   force =     0.00330523    0.00069739    0.01350126
     atom   31 type  2   force =    -0.00378578    0.00349684   -0.00002049
     atom   32 type  2   force =     0.00120138    0.00489270   -0.00002472
     atom   33 type  2   force =     0.00498644    0.00111488    0.00006263
     atom   34 type  2   force =     0.00378578   -0.00349684   -0.00002049
     atom   35 type  2   force =    -0.00120138   -0.00489270   -0.00002472
     atom   36 type  2   force =    -0.00498644   -0.00111488    0.00006263

     Total force =     0.049358     Total SCF correction =     0.001658

     BFGS Geometry Optimization

     number of scf cycles    =   1
     number of bfgs steps    =   0

     energy   new            =    -351.2475848485 Ry

     new trust radius        =       0.0139533461 bohr
     new conv_thr            =       0.0000010000 Ry


ATOMIC_POSITIONS (angstrom)
C        1.230200952   0.000454649   0.000287579
C        0.000038103   0.710181088   0.000299333
C       -0.000038103   2.130381912   0.000299333
C        1.230272912   2.840148824   0.000490316
C        1.231831666   4.262312575  -0.001323618
C       -0.000059688   4.971228390   0.000614879
C        0.000059688   6.391024610   0.000614879
C        1.231726758   7.099830852  -0.001347681
C        3.689954336  -0.002225375  -0.001406675
C        2.459727586   0.709752377   0.000531311
C        2.459725378   2.130797785   0.000337249
C        3.690045664   2.842788375  -0.001406675
C        3.690024705   4.260504012  -0.006740301
C        2.459856940   4.970580250  -0.006591413
C        2.459852504   6.391626841  -0.006588590
C        3.689975295   7.101748988  -0.006740301
C        6.149727088   0.000414176   0.000490316
C        4.920274622   0.709765215   0.000337249
C        4.920272414   2.130810623   0.000531311
C        6.149799048   2.840108351   0.000287579
C        6.148273242   4.262422148  -0.001347681
C        4.920147496   4.970626159  -0.006588590
C        4.920143060   6.391672750  -0.006591413
C        6.148168334   7.099940425  -0.001323618
C        4.677805552   4.693654065   3.007138847
C        3.328348578   4.332398744   3.007144991
C        2.341070949   5.319899956   3.007144558
C        2.702194448   6.668598935   3.007138847
C        4.051651422   7.029854256   3.007144991
C        5.038929051   6.042353044   3.007144558
H        5.445586653   3.925387450   2.999989158
H        3.047365742   3.283141106   2.999986917
H        1.292063712   5.038446972   3.000033141
H        1.934413347   7.436866550   2.999989158
H        4.332634258   8.079112894   2.999986917
H        6.087936288   6.323807028   3.000033141



     Writing output data file slabCalc_example1.save/
     NEW-OLD atomic charge density approx. for the potential

     negative rho (up, down):  2.108E-04 0.000E+00

     total cpu time spent up to now is      686.2 secs

     Self-consistent Calculation

     iteration #  1     ecut=    32.00 Ry     beta= 0.50
     Davidson diagonalization with overlap
     ethr =  1.00E-06,  avg # of iterations =  3.7

     negative rho (up, down):  2.110E-04 0.000E+00

     total cpu time spent up to now is      774.1 secs

     total energy              =    -351.24963390 Ry
     Harris-Foulkes estimate   =    -351.24982975 Ry
     estimated scf accuracy    <       0.00045125 Ry

     iteration #  2     ecut=    32.00 Ry     beta= 0.50
     Davidson diagonalization with overlap
     ethr =  3.58E-07,  avg # of iterations =  2.0

     negative rho (up, down):  2.111E-04 0.000E+00

     total cpu time spent up to now is      832.0 secs

     total energy              =    -351.24970284 Ry
     Harris-Foulkes estimate   =    -351.24971256 Ry
     estimated scf accuracy    <       0.00004912 Ry

     iteration #  3     ecut=    32.00 Ry     beta= 0.50
     Davidson diagonalization with overlap
     ethr =  3.90E-08,  avg # of iterations =  2.0

     negative rho (up, down):  2.123E-04 0.000E+00

     total cpu time spent up to now is      888.0 secs

     total energy              =    -351.24970966 Ry
     Harris-Foulkes estimate   =    -351.24971045 Ry
     estimated scf accuracy    <       0.00001001 Ry

     iteration #  4     ecut=    32.00 Ry     beta= 0.50
     Davidson diagonalization with overlap
     ethr =  7.95E-09,  avg # of iterations =  2.0

     negative rho (up, down):  2.125E-04 0.000E+00

     total cpu time spent up to now is      944.5 secs

     total energy              =    -351.24971117 Ry
     Harris-Foulkes estimate   =    -351.24971135 Ry
     estimated scf accuracy    <       0.00000182 Ry

     iteration #  5     ecut=    32.00 Ry     beta= 0.50
     Davidson diagonalization with overlap
     ethr =  1.44E-09,  avg # of iterations =  2.2

     negative rho (up, down):  2.111E-04 0.000E+00

     total cpu time spent up to now is      999.2 secs

     End of self-consistent calculation

          k = 0.0000 0.0000 0.0000 ( 31971 PWs)   bands (ev):

   -21.9318 -20.4782 -20.4739 -19.9998 -19.9996 -19.5261 -18.5895 -18.5894
   -18.5827 -18.5787 -16.8371 -16.8054 -16.7170 -15.6535 -15.0867 -15.0845
   -15.0710 -15.0655 -13.2604 -13.2393 -13.1091 -13.0992 -13.0972 -13.0841
   -12.9653 -12.9599 -11.3416 -10.2976 -10.2805 -10.0263  -9.9349  -9.9334
    -9.7030  -9.2992  -9.1106  -9.1034  -9.0961  -9.0902  -8.9618  -8.9229
    -8.9105  -8.7513  -8.6518  -8.4081  -8.2385  -7.8420  -7.7311  -7.6089
    -7.6079  -7.0263  -6.7928  -6.7661  -6.2528  -6.2183  -6.1440  -6.0781
    -5.6390  -5.6269  -4.9052  -4.4409  -4.3304  -2.4202  -2.4153  -2.3502
    -2.3444  -0.7513  -0.0446   0.4175   0.4679   0.6918   1.3180   1.3427
     1.4062   1.5033   1.5858   1.9862

          k = 0.0000 0.0722 0.0000 ( 31929 PWs)   bands (ev):

   -21.8400 -21.1092 -19.9119 -19.9100 -19.6785 -19.5219 -19.1998 -19.1842
   -17.8235 -17.8172 -17.6066 -16.8057 -16.8041 -15.9499 -15.9464 -14.6632
   -14.5520 -14.5456 -13.7076 -13.6984 -13.2484 -13.2282 -12.4428 -12.4387
   -12.3818 -12.3704 -11.5676 -11.3334 -10.7553 -10.7407 -10.1423 -10.1416
    -9.9263  -9.7045  -9.2981  -9.1210  -8.8711  -8.6679  -8.6519  -8.6126
    -8.5975  -8.4398  -8.4290  -8.3571  -8.1721  -7.8012  -7.6382  -7.4368
    -7.0985  -6.9631  -6.9180  -6.7783  -6.7046  -6.6453  -5.9920  -5.8298
    -5.4510  -5.4110  -5.2870  -4.4394  -4.4065  -3.3743  -3.3637  -1.4189
    -1.4121  -0.1516   0.0963   0.2458   0.3341   0.6884   0.7215   0.8226
     1.3115   1.8001   1.8585   2.2173

          k = 0.0000-0.1443 0.0000 ( 31940 PWs)   bands (ev):

   -21.5738 -21.5565 -19.6715 -19.6522 -19.6453 -19.6323 -19.4886 -18.7007
   -18.6988 -16.9462 -16.9452 -16.9230 -16.9224 -16.7833 -16.7743 -14.1781
   -14.1737 -14.1661 -14.1539 -13.2625 -13.2290 -13.1717 -13.1530 -11.5732
   -11.5628 -11.5588 -11.5509 -11.3610 -11.3483 -11.3401 -11.3337 -11.3010
    -9.7068  -9.6307  -9.6132  -9.2977  -8.6922  -8.6490  -8.6136  -8.5891
    -8.3079  -8.2968  -8.2955  -8.2795  -7.6459  -7.3638  -7.3517  -7.3318
    -6.9942  -6.9627  -6.9121  -6.7563  -6.7176  -6.3673  -6.3335  -6.3143
    -6.2395  -4.7694  -4.7576  -4.4178  -4.4060  -4.1202  -4.0885  -0.5530
    -0.5436  -0.4683  -0.4518   0.3353   0.4403   0.5861   0.8820   1.1903
     1.2514   1.4071   1.5340   2.0841

          k = 0.0833 0.0000 0.0000 ( 31951 PWs)   bands (ev):

   -21.8094 -20.8374 -20.3588 -20.3541 -19.5492 -19.4030 -19.3820 -18.9331
   -17.5795 -17.5781 -16.8201 -16.8139 -16.6288 -16.2901 -15.8055 -15.5524
   -14.9011 -14.6438 -14.6424 -14.1506 -13.2351 -13.2317 -12.4256 -12.1846
   -11.7303 -11.5088 -11.5081 -11.3049 -10.1973  -9.9603  -9.9589  -9.8914
    -9.7093  -9.4704  -9.2995  -9.1757  -9.1747  -8.9992  -8.9976  -8.8732
    -8.7665  -8.7277  -8.6102  -8.2455  -8.1200  -8.0635  -8.0628  -7.6783
    -7.3030  -7.0961  -6.8731  -6.7449  -6.7238  -6.4589  -6.1121  -5.8874
    -5.3419  -5.2899  -4.7863  -4.4371  -4.2973  -3.6361  -3.3767  -1.4458
    -1.1148  -0.7827  -0.1848  -0.0868   0.1530   0.6113   0.6687   0.8664
     1.5212   1.7453   2.1314   2.2079

          k = 0.0833 0.0722 0.0000 ( 31951 PWs)   bands (ev):

   -21.7178 -20.9882 -20.7469 -20.0287 -19.5804 -19.4985 -18.8460 -18.6148
   -18.1574 -17.4966 -16.9139 -16.8101 -16.7964 -16.6178 -16.2538 -15.1604
   -14.6706 -14.5721 -14.0561 -13.9352 -13.2332 -13.2323 -12.2405 -12.2267
   -12.0095 -11.7955 -11.5315 -11.2982 -10.7455 -10.3605  -9.7906  -9.7470
    -9.7175  -9.6930  -9.3787  -9.2986  -9.1723  -8.9967  -8.8184  -8.7865
    -8.6680  -8.6566  -8.5302  -8.4918  -8.1746  -7.8386  -7.5377  -7.3597
    -7.3513  -6.9686  -6.7680  -6.7493  -6.4482  -6.4106  -6.1668  -6.0629
    -5.7881  -5.2164  -4.8421  -4.4570  -4.3814  -3.9463  -3.7375  -1.0931
    -0.7816  -0.6276  -0.1575   0.2699   0.3582   0.6167   0.8347   0.9953
     1.4562   1.6186   1.6836   1.9452

          k = 0.0833-0.1443 0.0000 ( 31876 PWs)   bands (ev):

   -21.4520 -21.4347 -20.4840 -20.4683 -19.5311 -18.5970 -18.5904 -18.5832
   -18.5702 -17.6811 -17.6779 -16.8191 -16.8047 -16.3308 -16.3142 -15.2718
   -15.2711 -13.2471 -13.2446 -13.1090 -13.1015 -13.0896 -13.0879 -13.0265
   -13.0108 -11.4152 -11.4053 -11.2871 -10.7233 -10.7138  -9.9412  -9.9360
    -9.7115  -9.5008  -9.4700  -9.2997  -9.1140  -9.1055  -9.0963  -9.0880
    -8.7621  -8.6977  -8.3303  -8.2801  -7.6108  -7.5953  -7.2906  -7.2699
    -7.1126  -6.7738  -6.7667  -6.6269  -6.6193  -6.2450  -6.1836  -6.1576
    -6.1159  -5.2320  -5.1615  -4.5944  -4.4306  -4.0669  -3.9707  -0.9771
    -0.9454   0.2337   0.3270   0.4773   0.5650   0.6331   1.0702   1.3239
     1.3346   1.3736   1.4122   1.4357

          k =-0.1667 0.0000 0.0000 ( 31854 PWs)   bands (ev):

   -21.4487 -21.4382 -20.0070 -19.9996 -19.9974 -19.9940 -19.5147 -17.6825
   -17.6771 -16.8580 -16.8299 -16.7302 -16.7072 -16.3380 -16.3115 -15.6590
   -15.6576 -15.2705 -15.2622 -13.2450 -13.2180 -13.0278 -13.0203 -11.4069
   -11.4037 -11.2636 -10.7323 -10.7121 -10.2932 -10.2908 -10.2751 -10.2746
    -9.7192  -9.4947  -9.4809  -9.2996  -8.9622  -8.9582  -8.9357  -8.9269
    -8.9234  -8.9076  -8.7495  -8.7073  -7.9555  -7.7377  -7.7365  -7.7345
    -7.3021  -7.2734  -6.9024  -6.7509  -6.7201  -6.6188  -6.6115  -5.3163
    -5.1127  -4.8914  -4.8862  -4.5692  -4.2172  -4.1703  -3.9298  -0.9987
    -0.9150  -0.7906  -0.7072   0.2595   0.4337   0.5705   0.6241   0.7658
     0.8727   1.3636   1.4074   2.2029

          k =-0.1667 0.0722 0.0000 ( 31908 PWs)   bands (ev):

   -21.3575 -21.3470 -20.6311 -20.6218 -19.5344 -19.2041 -19.1830 -17.6008
   -17.5952 -17.1732 -17.1674 -17.0182 -17.0025 -16.7981 -16.7909 -15.2574
   -15.2560 -14.3254 -14.3153 -13.5839 -13.5787 -13.2327 -13.2154 -11.5317
   -11.5243 -11.2617 -10.8358 -10.8345 -10.6290 -10.6088  -9.7620  -9.7502
    -9.7150  -9.3988  -9.3757  -9.3067  -9.2667  -9.2631  -9.2275  -9.2252
    -8.7804  -8.7707  -8.4670  -8.4379  -7.9197  -7.9138  -7.6608  -7.6388
    -7.2006  -6.8790  -6.7786  -6.6939  -6.6543  -6.6521  -6.6398  -5.2887
    -5.0908  -4.9757  -4.9286  -4.7853  -4.7271  -4.2139  -4.2090  -0.6414
    -0.5709  -0.3481  -0.2652   0.1186   0.2476   0.6504   0.6861   0.7243
     0.9857   1.4922   1.5199   1.6927

          k =-0.1667-0.1443 0.0000 ( 31784 PWs)   bands (ev):

   -21.0923 -21.0828 -21.0760 -21.0652 -19.5290 -18.2535 -18.2452 -18.2368
   -18.2348 -17.3722 -17.3633 -17.3542 -17.3494 -16.8089 -16.8013 -14.4748
   -14.4660 -14.4647 -14.4593 -13.2373 -13.2230 -12.9338 -12.9337 -12.9280
   -12.9114 -11.2547 -10.3217 -10.3063 -10.3061 -10.2815  -9.9543  -9.9431
    -9.9267  -9.9184  -9.7204  -9.3011  -9.1461  -9.1167  -9.0824  -9.0082
    -8.6702  -8.6254  -8.4034  -8.3939  -8.3870  -8.3768  -7.0867  -7.0743
    -7.0717  -7.0606  -7.0594  -6.7666  -6.7357  -5.9163  -5.7993  -5.7521
    -5.7049  -5.2392  -4.9901  -4.9702  -4.9404  -4.3276  -4.2208  -0.3607
    -0.1996  -0.1579  -0.1390   0.4416   0.6692   0.7720   1.0273   1.0683
     1.0704   1.1694   1.2906   1.3839

          k =-0.0833 0.0722 0.0000 ( 31951 PWs)   bands (ev):

   -21.7178 -20.9882 -20.7469 -20.0287 -19.5804 -19.4985 -18.8459 -18.6148
   -18.1574 -17.4967 -16.9146 -16.8096 -16.7959 -16.6180 -16.2536 -15.1605
   -14.6708 -14.5723 -14.0559 -13.9353 -13.2329 -13.2320 -12.2408 -12.2269
   -12.0094 -11.7955 -11.5318 -11.2977 -10.7455 -10.3605  -9.7906  -9.7462
    -9.7185  -9.6943  -9.3783  -9.2985  -9.1722  -8.9960  -8.8188  -8.7877
    -8.6702  -8.6533  -8.5274  -8.4915  -8.1749  -7.8333  -7.5377  -7.3615
    -7.3563  -6.9812  -6.7853  -6.7351  -6.4481  -6.3925  -6.1653  -6.0631
    -5.7872  -5.2209  -4.8437  -4.4545  -4.3825  -3.9464  -3.7368  -1.0948
    -0.7816  -0.6279  -0.1628   0.2644   0.3624   0.6228   0.8405   0.9950
     1.4416   1.5914   1.6757   1.9433

     the Fermi energy is    -2.3825 ev

!    total energy              =    -351.24971130 Ry
     Harris-Foulkes estimate   =    -351.24971161 Ry
     estimated scf accuracy    <       0.00000039 Ry

     The total energy is the sum of the following terms:

     one-electron contribution =   -4812.46959557 Ry
     hartree contribution      =    2426.16911965 Ry
     xc contribution           =    -112.32425247 Ry
     ewald contribution        =    2147.37779096 Ry
     smearing contrib. (-TS)   =      -0.00277387 Ry

     convergence has been achieved in   5 iterations

     Forces acting on atoms (cartesian axes, Ry/au):

     atom    1 type  1   force =     0.00067570   -0.00139481    0.00031208
     atom    2 type  1   force =     0.00001153    0.00003594    0.00138123
     atom    3 type  1   force =    -0.00001153   -0.00003594    0.00138123
     atom    4 type  1   force =     0.00065424    0.00127291    0.00051927
     atom    5 type  1   force =    -0.00089493   -0.00103497   -0.00249830
     atom    6 type  1   force =     0.00002380    0.00139518    0.00137763
     atom    7 type  1   force =    -0.00002380   -0.00139518    0.00137763
     atom    8 type  1   force =    -0.00079136    0.00109911   -0.00257172
     atom    9 type  1   force =    -0.00001422   -0.00067039   -0.00334937
     atom   10 type  1   force =     0.00048311   -0.00042754    0.00072349
     atom   11 type  1   force =     0.00060824    0.00043686    0.00057170
     atom   12 type  1   force =     0.00001422    0.00067039   -0.00334937
     atom   13 type  1   force =     0.00004584    0.00142738   -0.01176471
     atom   14 type  1   force =     0.00142903    0.00130438   -0.01141264
     atom   15 type  1   force =     0.00134914   -0.00136988   -0.01141106
     atom   16 type  1   force =    -0.00004584   -0.00142738   -0.01176471
     atom   17 type  1   force =    -0.00065424   -0.00127291    0.00051927
     atom   18 type  1   force =    -0.00060824   -0.00043686    0.00057170
     atom   19 type  1   force =    -0.00048311    0.00042754    0.00072349
     atom   20 type  1   force =    -0.00067570    0.00139481    0.00031208
     atom   21 type  1   force =     0.00079136   -0.00109911   -0.00257172
     atom   22 type  1   force =    -0.00134914    0.00136988   -0.01141106
     atom   23 type  1   force =    -0.00142903   -0.00130438   -0.01141264
     atom   24 type  1   force =     0.00089493    0.00103497   -0.00249830
     atom   25 type  1   force =    -0.00412167    0.00343589    0.01231209
     atom   26 type  1   force =     0.00177080    0.00501175    0.01231450
     atom   27 type  1   force =     0.00440732    0.00137884    0.01233292
     atom   28 type  1   force =     0.00412167   -0.00343589    0.01231209
     atom   29 type  1   force =    -0.00177080   -0.00501175    0.01231450
     atom   30 type  1   force =    -0.00440732   -0.00137884    0.01233292
     atom   31 type  2   force =     0.00021462   -0.00045306    0.00036196
     atom   32 type  2   force =    -0.00024089   -0.00026067    0.00036058
     atom   33 type  2   force =    -0.00036857   -0.00027709    0.00044034
     atom   34 type  2   force =    -0.00021462    0.00045306    0.00036196
     atom   35 type  2   force =     0.00024089    0.00026067    0.00036058
     atom   36 type  2   force =     0.00036857    0.00027709    0.00044034

     Total force =     0.044356     Total SCF correction =     0.001617

     number of scf cycles    =   2
     number of bfgs steps    =   1

     energy   old            =    -351.2475848485 Ry
     energy   new            =    -351.2497112996 Ry

     CASE: energy  _new < energy  _old

     new trust radius        =       0.0153486807 bohr
     new conv_thr            =       0.0000010000 Ry


ATOMIC_POSITIONS (angstrom)
C        1.230530919   0.000293735   0.000556513
C        0.000064481   0.710216227   0.000907159
C       -0.000064481   2.130346773   0.000907159
C        1.230639274   2.840296116   0.000944862
C        1.232649816   4.262869412  -0.002891028
C       -0.000088016   4.971806473   0.001410384
C        0.000088016   6.390446527   0.001410384
C        1.232514286   7.099228364  -0.002952279
C        3.689922600  -0.003764956  -0.003287949
C        2.459714548   0.709387149   0.001073774
C        2.459749860   2.131158225   0.000716485
C        3.690077400   2.844327956  -0.003287949
C        3.690053714   4.260743040  -0.014424884
C        2.460214906   4.970742352  -0.014077634
C        2.460183017   6.391416938  -0.014072630
C        3.689946286   7.101509960  -0.014424884
C        6.149360726   0.000266884   0.000944862
C        4.920250140   0.709404775   0.000716485
C        4.920285452   2.131175851   0.001073774
C        6.149469081   2.840269265   0.000556513
C        6.147485714   4.263024636  -0.002952279
C        4.919816983   4.970836062  -0.014072630
C        4.919785094   6.391510648  -0.014077634
C        6.147350184   7.099383588  -0.002891028
C        4.677417444   4.694028323   3.015231794
C        3.328422902   4.333028600   3.015242363
C        2.341392456   5.320107132   3.015247389
C        2.702582556   6.668224677   3.015231794
C        4.051577098   7.029224400   3.015242363
C        5.038607544   6.042145868   3.015247389
H        5.444454619   3.926353992   3.000095020
H        3.047671352   3.284609319   3.000091011
H        1.293528117   5.038713959   3.000189651
H        1.935545381   7.435900008   3.000095020
H        4.332328648   8.077644681   3.000091011
H        6.086471883   6.323540041   3.000189651



     Writing output data file slabCalc_example1.save/
     NEW-OLD atomic charge density approx. for the potential

     negative rho (up, down):  2.100E-04 0.000E+00

     total cpu time spent up to now is     1024.4 secs

     Self-consistent Calculation

     iteration #  1     ecut=    32.00 Ry     beta= 0.50
     Davidson diagonalization with overlap
     ethr =  1.00E-06,  avg # of iterations =  4.0

     negative rho (up, down):  2.102E-04 0.000E+00

     total cpu time spent up to now is     1111.7 secs

     total energy              =    -351.25169329 Ry
     Harris-Foulkes estimate   =    -351.25191261 Ry
     estimated scf accuracy    <       0.00049874 Ry

     iteration #  2     ecut=    32.00 Ry     beta= 0.50
     Davidson diagonalization with overlap
     ethr =  3.96E-07,  avg # of iterations =  2.0

     negative rho (up, down):  2.107E-04 0.000E+00

     total cpu time spent up to now is     1170.0 secs

     total energy              =    -351.25177760 Ry
     Harris-Foulkes estimate   =    -351.25179035 Ry
     estimated scf accuracy    <       0.00005770 Ry

     iteration #  3     ecut=    32.00 Ry     beta= 0.50
     Davidson diagonalization with overlap
     ethr =  4.58E-08,  avg # of iterations =  2.0

     negative rho (up, down):  2.110E-04 0.000E+00

     total cpu time spent up to now is     1227.2 secs

     total energy              =    -351.25178617 Ry
     Harris-Foulkes estimate   =    -351.25178766 Ry
     estimated scf accuracy    <       0.00001302 Ry

     iteration #  4     ecut=    32.00 Ry     beta= 0.50
     Davidson diagonalization with overlap
     ethr =  1.03E-08,  avg # of iterations =  2.0

     negative rho (up, down):  2.117E-04 0.000E+00

     total cpu time spent up to now is     1283.6 secs

     total energy              =    -351.25178805 Ry
     Harris-Foulkes estimate   =    -351.25178867 Ry
     estimated scf accuracy    <       0.00000321 Ry

     iteration #  5     ecut=    32.00 Ry     beta= 0.50
     Davidson diagonalization with overlap
     ethr =  2.55E-09,  avg # of iterations =  2.2

     negative rho (up, down):  2.105E-04 0.000E+00

     total cpu time spent up to now is     1337.7 secs

     End of self-consistent calculation

          k = 0.0000 0.0000 0.0000 ( 31971 PWs)   bands (ev):

   -21.9354 -20.4816 -20.4780 -20.0046 -20.0017 -19.5326 -18.5945 -18.5942
   -18.5857 -18.5816 -16.8385 -16.8101 -16.7224 -15.6583 -15.0936 -15.0929
   -15.0716 -15.0657 -13.2634 -13.2420 -13.1142 -13.1043 -13.0995 -13.0879
   -12.9706 -12.9629 -11.3480 -10.3040 -10.2801 -10.0281  -9.9398  -9.9379
    -9.7055  -9.3018  -9.1144  -9.1044  -9.1041  -9.0946  -8.9652  -8.9312
    -8.9136  -8.7542  -8.6568  -8.4061  -8.2401  -7.8415  -7.7341  -7.6120
    -7.6104  -7.0396  -6.7942  -6.7664  -6.2527  -6.2185  -6.1481  -6.0863
    -5.6413  -5.6329  -4.9025  -4.4500  -4.3429  -2.4262  -2.4233  -2.3513
    -2.3465  -0.7526  -0.0417   0.4239   0.4675   0.6895   1.3128   1.3396
     1.3981   1.4945   1.5860   1.9886

          k = 0.0000 0.0722 0.0000 ( 31929 PWs)   bands (ev):

   -21.8436 -21.1130 -19.9150 -19.9138 -19.6815 -19.5286 -19.2048 -19.1876
   -17.8282 -17.8202 -17.6102 -16.8103 -16.8076 -15.9542 -15.9505 -14.6677
   -14.5574 -14.5478 -13.7133 -13.7001 -13.2523 -13.2317 -12.4479 -12.4417
   -12.3883 -12.3718 -11.5723 -11.3399 -10.7618 -10.7410 -10.1473 -10.1453
    -9.9278  -9.7070  -9.3009  -9.1224  -8.8743  -8.6693  -8.6563  -8.6207
    -8.5995  -8.4466  -8.4316  -8.3628  -8.1753  -7.7987  -7.6407  -7.4378
    -7.1045  -6.9659  -6.9203  -6.7805  -6.7046  -6.6590  -5.9979  -5.8325
    -5.4490  -5.4116  -5.2896  -4.4482  -4.4167  -3.3805  -3.3705  -1.4222
    -1.4146  -0.1491   0.0990   0.2515   0.3325   0.6776   0.7149   0.8202
     1.3143   1.8002   1.8570   2.2174

          k = 0.0000-0.1443 0.0000 ( 31940 PWs)   bands (ev):

   -21.5738 -21.5639 -19.6753 -19.6537 -19.6436 -19.6408 -19.4976 -18.7055
   -18.7017 -16.9499 -16.9462 -16.9266 -16.9263 -16.7898 -16.7800 -14.1793
   -14.1762 -14.1724 -14.1588 -13.2656 -13.2324 -13.1738 -13.1611 -11.5806
   -11.5681 -11.5582 -11.5534 -11.3659 -11.3500 -11.3414 -11.3410 -11.3092
    -9.7093  -9.6330  -9.6138  -9.3004  -8.6936  -8.6535  -8.6119  -8.5979
    -8.3162  -8.3030  -8.2951  -8.2845  -7.6433  -7.3671  -7.3535  -7.3312
    -6.9988  -6.9687  -6.9251  -6.7598  -6.7204  -6.3666  -6.3340  -6.3193
    -6.2463  -4.7650  -4.7546  -4.4205  -4.4101  -4.1364  -4.1051  -0.5511
    -0.5427  -0.4709  -0.4569   0.3371   0.4399   0.5838   0.8839   1.1883
     1.2516   1.4036   1.5233   2.0836

          k = 0.0833 0.0000 0.0000 ( 31951 PWs)   bands (ev):

   -21.8130 -20.8411 -20.3622 -20.3581 -19.5537 -19.4070 -19.3875 -18.9370
   -17.5831 -17.5821 -16.8223 -16.8185 -16.6334 -16.2945 -15.8092 -15.5573
   -14.9061 -14.6476 -14.6460 -14.1539 -13.2387 -13.2354 -12.4302 -12.1877
   -11.7335 -11.5129 -11.5121 -11.3116 -10.2024  -9.9652  -9.9639  -9.8926
    -9.7119  -9.4736  -9.3021  -9.1799  -9.1790  -9.0039  -9.0023  -8.8763
    -8.7689  -8.7310  -8.6118  -8.2443  -8.1218  -8.0667  -8.0658  -7.6840
    -7.3054  -7.0984  -6.8810  -6.7493  -6.7247  -6.4660  -6.1147  -5.8933
    -5.3407  -5.2906  -4.7842  -4.4464  -4.3090  -3.6444  -3.3827  -1.4496
    -1.1166  -0.7844  -0.1812  -0.0879   0.1556   0.6051   0.6623   0.8642
     1.5233   1.7462   2.1291   2.2070

          k = 0.0833 0.0722 0.0000 ( 31951 PWs)   bands (ev):

   -21.7214 -20.9920 -20.7505 -20.0323 -19.5838 -19.5052 -18.8498 -18.6188
   -18.1613 -17.5002 -16.9164 -16.8140 -16.8012 -16.6227 -16.2581 -15.1641
   -14.6740 -14.5767 -14.0606 -13.9389 -13.2365 -13.2363 -12.2440 -12.2309
   -12.0130 -11.7999 -11.5363 -11.3048 -10.7493 -10.3645  -9.7924  -9.7505
    -9.7204  -9.6980  -9.3818  -9.3014  -9.1757  -8.9984  -8.8217  -8.7913
    -8.6697  -8.6598  -8.5315  -8.4970  -8.1791  -7.8383  -7.5429  -7.3629
    -7.3532  -6.9811  -6.7696  -6.7495  -6.4526  -6.4141  -6.1698  -6.0675
    -5.7904  -5.2153  -4.8402  -4.4642  -4.3898  -3.9575  -3.7468  -1.0947
    -0.7831  -0.6287  -0.1575   0.2726   0.3616   0.6110   0.8260   0.9929
     1.4590   1.6199   1.6787   1.9402

          k = 0.0833-0.1443 0.0000 ( 31876 PWs)   bands (ev):

   -21.4520 -21.4421 -20.4840 -20.4757 -19.5372 -18.5997 -18.5966 -18.5832
   -18.5768 -17.6858 -17.6809 -16.8233 -16.8081 -16.3325 -16.3217 -15.2763
   -15.2735 -13.2500 -13.2471 -13.1149 -13.1056 -13.0930 -13.0913 -13.0284
   -13.0195 -11.4150 -11.4120 -11.2942 -10.7253 -10.7208  -9.9445  -9.9400
    -9.7141  -9.5031  -9.4706  -9.3024  -9.1127  -9.1080  -9.1033  -9.0958
    -8.7665  -8.6993  -8.3312  -8.2804  -7.6146  -7.6009  -7.2951  -7.2753
    -7.1239  -6.7754  -6.7665  -6.6290  -6.6244  -6.2451  -6.1878  -6.1575
    -6.1222  -5.2301  -5.1641  -4.5965  -4.4375  -4.0767  -3.9862  -0.9759
    -0.9486   0.2412   0.3302   0.4787   0.5620   0.6246   1.0716   1.3202
     1.3285   1.3716   1.4115   1.4281

          k =-0.1667 0.0000 0.0000 ( 31854 PWs)   bands (ev):

   -21.4504 -21.4438 -20.0110 -20.0026 -20.0019 -19.9968 -19.5219 -17.6859
   -17.6812 -16.8599 -16.8318 -16.7352 -16.7143 -16.3392 -16.3181 -15.6625
   -15.6609 -15.2728 -15.2698 -13.2477 -13.2218 -13.0311 -13.0243 -11.4116
   -11.4084 -11.2706 -10.7363 -10.7146 -10.3034 -10.2969 -10.2781 -10.2738
    -9.7218  -9.4958  -9.4831  -9.3023  -8.9662  -8.9624  -8.9428  -8.9300
    -8.9277  -8.9081  -8.7526  -8.7101  -7.9503  -7.7395  -7.7385  -7.7383
    -7.3058  -7.2750  -6.9212  -6.7511  -6.7221  -6.6225  -6.6195  -5.3126
    -5.1174  -4.8895  -4.8834  -4.5717  -4.2369  -4.1721  -3.9452  -0.9989
    -0.9195  -0.7884  -0.7100   0.2639   0.4306   0.5722   0.6194   0.7532
     0.8748   1.3613   1.4056   2.2036

          k =-0.1667 0.0722 0.0000 ( 31908 PWs)   bands (ev):

   -21.3591 -21.3526 -20.6328 -20.6275 -19.5402 -19.2057 -19.1897 -17.6041
   -17.5992 -17.1746 -17.1728 -17.0206 -17.0063 -16.8047 -16.7955 -15.2609
   -15.2596 -14.3274 -14.3225 -13.5870 -13.5822 -13.2366 -13.2193 -11.5340
   -11.5316 -11.2684 -10.8403 -10.8394 -10.6330 -10.6114  -9.7662  -9.7521
    -9.7180  -9.3998  -9.3781  -9.3091  -9.2727  -9.2661  -9.2321  -9.2299
    -8.7829  -8.7735  -8.4664  -8.4395  -7.9256  -7.9156  -7.6655  -7.6412
    -7.2067  -6.8807  -6.7824  -6.6971  -6.6610  -6.6561  -6.6461  -5.2845
    -5.0928  -4.9740  -4.9272  -4.7881  -4.7292  -4.2337  -4.2266  -0.6384
    -0.5704  -0.3494  -0.2694   0.1214   0.2447   0.6520   0.6797   0.7124
     0.9881   1.4893   1.5180   1.6966

          k =-0.1667-0.1443 0.0000 ( 31784 PWs)   bands (ev):

   -21.0916 -21.0835 -21.0802 -21.0758 -19.5352 -18.2566 -18.2453 -18.2428
   -18.2412 -17.3704 -17.3646 -17.3624 -17.3561 -16.8147 -16.8050 -14.4774
   -14.4710 -14.4671 -14.4638 -13.2408 -13.2261 -12.9384 -12.9335 -12.9326
   -12.9220 -11.2614 -10.3220 -10.3138 -10.3033 -10.2896  -9.9551  -9.9485
    -9.9307  -9.9262  -9.7232  -9.3038  -9.1467  -9.1210  -9.0840  -9.0083
    -8.6729  -8.6262  -8.4087  -8.3988  -8.3888  -8.3801  -7.0998  -7.0803
    -7.0747  -7.0681  -7.0612  -6.7666  -6.7374  -5.9135  -5.8007  -5.7533
    -5.7112  -5.2357  -4.9916  -4.9695  -4.9454  -4.3427  -4.2407  -0.3522
    -0.1994  -0.1614  -0.1415   0.4476   0.6601   0.7733   1.0242   1.0612
     1.0669   1.1710   1.2756   1.3862

          k =-0.0833 0.0722 0.0000 ( 31951 PWs)   bands (ev):

   -21.7214 -20.9920 -20.7505 -20.0323 -19.5839 -19.5051 -18.8498 -18.6188
   -18.1614 -17.5003 -16.9171 -16.8136 -16.8006 -16.6229 -16.2580 -15.1641
   -14.6742 -14.5769 -14.0604 -13.9390 -13.2366 -13.2357 -12.2443 -12.2311
   -12.0130 -11.7999 -11.5366 -11.3044 -10.7493 -10.3644  -9.7923  -9.7499
    -9.7211  -9.6995  -9.3815  -9.3013  -9.1757  -8.9976  -8.8222  -8.7925
    -8.6720  -8.6563  -8.5289  -8.4965  -8.1794  -7.8331  -7.5428  -7.3643
    -7.3586  -6.9932  -6.7852  -6.7378  -6.4525  -6.3961  -6.1680  -6.0676
    -5.7896  -5.2198  -4.8418  -4.4617  -4.3909  -3.9576  -3.7460  -1.0963
    -0.7830  -0.6290  -0.1625   0.2669   0.3657   0.6169   0.8315   0.9926
     1.4443   1.5938   1.6702   1.9387

     the Fermi energy is    -2.3868 ev

!    total energy              =    -351.25178847 Ry
     Harris-Foulkes estimate   =    -351.25178882 Ry
     estimated scf accuracy    <       0.00000058 Ry

     The total energy is the sum of the following terms:

     one-electron contribution =   -4808.46443726 Ry
     hartree contribution      =    2424.15290608 Ry
     xc contribution           =    -112.32765639 Ry
     ewald contribution        =    2145.39016575 Ry
     smearing contrib. (-TS)   =      -0.00276665 Ry

     convergence has been achieved in   5 iterations

     Forces acting on atoms (cartesian axes, Ry/au):

     atom    1 type  1   force =     0.00020648   -0.00169148    0.00006979
     atom    2 type  1   force =    -0.00005385   -0.00027823    0.00232166
     atom    3 type  1   force =     0.00005385    0.00027823    0.00232166
     atom    4 type  1   force =     0.00011530    0.00155125    0.00012603
     atom    5 type  1   force =    -0.00251163   -0.00176812   -0.00250256
     atom    6 type  1   force =     0.00015654    0.00034624    0.00085752
     atom    7 type  1   force =    -0.00015654   -0.00034624    0.00085752
     atom    8 type  1   force =    -0.00232613    0.00189859   -0.00259368
     atom    9 type  1   force =     0.00002830    0.00315006   -0.00326668
     atom   10 type  1   force =     0.00114135    0.00002746    0.00032367
     atom   11 type  1   force =     0.00124521   -0.00001543    0.00035616
     atom   12 type  1   force =    -0.00002830   -0.00315006   -0.00326668
     atom   13 type  1   force =     0.00002975    0.00215386   -0.01039428
     atom   14 type  1   force =     0.00115286    0.00126736   -0.01037647
     atom   15 type  1   force =     0.00109334   -0.00130485   -0.01038267
     atom   16 type  1   force =    -0.00002975   -0.00215386   -0.01039428
     atom   17 type  1   force =    -0.00011530   -0.00155125    0.00012603
     atom   18 type  1   force =    -0.00124521    0.00001543    0.00035616
     atom   19 type  1   force =    -0.00114135   -0.00002746    0.00032367
     atom   20 type  1   force =    -0.00020648    0.00169148    0.00006979
     atom   21 type  1   force =     0.00232613   -0.00189859   -0.00259368
     atom   22 type  1   force =    -0.00109334    0.00130485   -0.01038267
     atom   23 type  1   force =    -0.00115286   -0.00126736   -0.01037647
     atom   24 type  1   force =     0.00251163    0.00176812   -0.00250256
     atom   25 type  1   force =    -0.00413555    0.00341459    0.01103889
     atom   26 type  1   force =     0.00172698    0.00492789    0.01102260
     atom   27 type  1   force =     0.00485035    0.00133617    0.01106934
     atom   28 type  1   force =     0.00413555   -0.00341459    0.01103889
     atom   29 type  1   force =    -0.00172698   -0.00492789    0.01102260
     atom   30 type  1   force =    -0.00485035   -0.00133617    0.01106934
     atom   31 type  2   force =     0.00100443   -0.00126864    0.00075228
     atom   32 type  2   force =    -0.00050438   -0.00126985    0.00075152
     atom   33 type  2   force =    -0.00167561   -0.00057813    0.00082686
     atom   34 type  2   force =    -0.00100443    0.00126864    0.00075228
     atom   35 type  2   force =     0.00050438    0.00126985    0.00075152
     atom   36 type  2   force =     0.00167561    0.00057813    0.00082686

     Total force =     0.041412     Total SCF correction =     0.002042

     number of scf cycles    =   3
     number of bfgs steps    =   2

     energy   old            =    -351.2497112996 Ry
     energy   new            =    -351.2517884722 Ry

     CASE: energy  _new < energy  _old

     new trust radius        =       0.0230230211 bohr
     new conv_thr            =       0.0000010000 Ry


ATOMIC_POSITIONS (angstrom)
C        1.230705213  -0.000122444   0.000816496
C        0.000060057   0.710039989   0.002565130
C       -0.000060057   2.130523011   0.002565130
C        1.230824840   2.840682330   0.001396869
C        1.232889844   4.263330471  -0.005423060
C       -0.000038726   4.971930803   0.002300128
C        0.000038726   6.390322197   0.002300128
C        1.232757321   7.098735317  -0.005556691
C        3.689901021  -0.003503505  -0.006241707
C        2.460155395   0.709128133   0.001659087
C        2.460231693   2.131410579   0.001169614
C        3.690098979   2.844066505  -0.006241707
C        3.690088556   4.261610683  -0.025829528
C        2.460538060   4.970917061  -0.025413312
C        2.460479111   6.391185374  -0.025410483
C        3.689911444   7.100642317  -0.025829528
C        6.149175160  -0.000119330   0.001396869
C        4.919768307   0.709152421   0.001169614
C        4.919844605   2.131434867   0.001659087
C        6.149294787   2.840685444   0.000816496
C        6.147242679   4.263517683  -0.005556691
C        4.919520889   4.971067626  -0.025410483
C        4.919461940   6.391335939  -0.025413312
C        6.147110156   7.098922529  -0.005423060
C        4.676979351   4.694455456   3.027373599
C        3.328416575   4.333755328   3.027377631
C        2.342020644   5.320350206   3.027412012
C        2.703020649   6.667797544   3.027373599
C        4.051583425   7.028497672   3.027377631
C        5.037979356   6.041902794   3.027412012
H        5.443102290   3.927418678   3.000545684
H        3.048009338   3.286373559   3.000539205
H        1.295070049   5.038960221   3.000719328
H        1.936897710   7.434835322   3.000545684
H        4.331990662   8.075880441   3.000539205
H        6.084929951   6.323293779   3.000719328



     Writing output data file slabCalc_example1.save/
     NEW-OLD atomic charge density approx. for the potential

     negative rho (up, down):  2.091E-04 0.000E+00

     total cpu time spent up to now is     1361.5 secs

     Self-consistent Calculation

     iteration #  1     ecut=    32.00 Ry     beta= 0.50
     Davidson diagonalization with overlap
     ethr =  1.00E-06,  avg # of iterations =  4.3

     negative rho (up, down):  2.091E-04 0.000E+00

     total cpu time spent up to now is     1456.3 secs

     total energy              =    -351.25433176 Ry
     Harris-Foulkes estimate   =    -351.25482846 Ry
     estimated scf accuracy    <       0.00112168 Ry

     iteration #  2     ecut=    32.00 Ry     beta= 0.50
     Davidson diagonalization with overlap
     ethr =  8.90E-07,  avg # of iterations =  2.0

     negative rho (up, down):  2.105E-04 0.000E+00

     total cpu time spent up to now is     1514.1 secs

     total energy              =    -351.25451875 Ry
     Harris-Foulkes estimate   =    -351.25455683 Ry
     estimated scf accuracy    <       0.00014449 Ry

     iteration #  3     ecut=    32.00 Ry     beta= 0.50
     Davidson diagonalization with overlap
     ethr =  1.15E-07,  avg # of iterations =  2.0

     negative rho (up, down):  2.093E-04 0.000E+00

     total cpu time spent up to now is     1571.9 secs

     total energy              =    -351.25454020 Ry
     Harris-Foulkes estimate   =    -351.25454889 Ry
     estimated scf accuracy    <       0.00003927 Ry

     iteration #  4     ecut=    32.00 Ry     beta= 0.50
     Davidson diagonalization with overlap
     ethr =  3.12E-08,  avg # of iterations =  2.2

     negative rho (up, down):  2.111E-04 0.000E+00

     total cpu time spent up to now is     1626.9 secs

     total energy              =    -351.25454685 Ry
     Harris-Foulkes estimate   =    -351.25454938 Ry
     estimated scf accuracy    <       0.00001136 Ry

     iteration #  5     ecut=    32.00 Ry     beta= 0.50
     Davidson diagonalization with overlap
     ethr =  9.02E-09,  avg # of iterations =  2.2

     negative rho (up, down):  2.105E-04 0.000E+00

     total cpu time spent up to now is     1680.7 secs

     total energy              =    -351.25454914 Ry
     Harris-Foulkes estimate   =    -351.25454925 Ry
     estimated scf accuracy    <       0.00000117 Ry

     iteration #  6     ecut=    32.00 Ry     beta= 0.50
     Davidson diagonalization with overlap
     ethr =  9.27E-10,  avg # of iterations =  2.2

     negative rho (up, down):  2.093E-04 0.000E+00

     total cpu time spent up to now is     1736.4 secs

     End of self-consistent calculation

          k = 0.0000 0.0000 0.0000 ( 31971 PWs)   bands (ev):

   -21.9409 -20.4879 -20.4825 -20.0097 -20.0073 -19.5396 -18.5998 -18.5994
   -18.5908 -18.5895 -16.8396 -16.8136 -16.7308 -15.6622 -15.0988 -15.0964
   -15.0803 -15.0725 -13.2639 -13.2439 -13.1171 -13.1133 -13.1066 -13.0967
   -12.9759 -12.9693 -11.3532 -10.3109 -10.2902 -10.0311  -9.9430  -9.9427
    -9.7047  -9.3040  -9.1196  -9.1088  -9.1082  -9.1030  -8.9729  -8.9338
    -8.9187  -8.7569  -8.6594  -8.4043  -8.2415  -7.8428  -7.7371  -7.6196
    -7.6189  -7.0577  -6.7922  -6.7663  -6.2513  -6.2175  -6.1533  -6.1003
    -5.6509  -5.6356  -4.9015  -4.4612  -4.3594  -2.4299  -2.4238  -2.3634
    -2.3555  -0.7511  -0.0381   0.4320   0.4698   0.6855   1.3096   1.3326
     1.3843   1.4783   1.5865   1.9919

          k = 0.0000 0.0722 0.0000 ( 31929 PWs)   bands (ev):

   -21.8491 -21.1185 -19.9201 -19.9192 -19.6863 -19.5358 -19.2100 -19.1949
   -17.8334 -17.8263 -17.6159 -16.8137 -16.8106 -15.9601 -15.9567 -14.6724
   -14.5629 -14.5547 -13.7186 -13.7073 -13.2536 -13.2347 -12.4532 -12.4478
   -12.3939 -12.3797 -11.5770 -11.3452 -10.7680 -10.7500 -10.1527 -10.1510
    -9.9299  -9.7061  -9.3031  -9.1247  -8.8822  -8.6699  -8.6585  -8.6240
    -8.6056  -8.4508  -8.4381  -8.3670  -8.1839  -7.7948  -7.6424  -7.4421
    -7.1126  -6.9747  -6.9223  -6.7805  -6.7045  -6.6763  -6.0008  -5.8427
    -5.4460  -5.4115  -5.2973  -4.4591  -4.4294  -3.3888  -3.3796  -1.4269
    -1.4199  -0.1442   0.1025   0.2578   0.3330   0.6644   0.7041   0.8160
     1.3182   1.7999   1.8544   2.2174

          k = 0.0000-0.1443 0.0000 ( 31940 PWs)   bands (ev):

   -21.5782 -21.5705 -19.6785 -19.6571 -19.6489 -19.6477 -19.5077 -18.7126
   -18.7063 -16.9537 -16.9480 -16.9336 -16.9312 -16.7957 -16.7859 -14.1833
   -14.1831 -14.1777 -14.1678 -13.2661 -13.2354 -13.1769 -13.1682 -11.5865
   -11.5736 -11.5670 -11.5611 -11.3709 -11.3542 -11.3478 -11.3458 -11.3171
    -9.7084  -9.6329  -9.6182  -9.3027  -8.6944  -8.6554  -8.6177  -8.6088
    -8.3197  -8.3071  -8.3008  -8.2920  -7.6381  -7.3673  -7.3574  -7.3353
    -7.0025  -6.9716  -6.9409  -6.7612  -6.7228  -6.3667  -6.3431  -6.3292
    -6.2575  -4.7592  -4.7491  -4.4245  -4.4170  -4.1574  -4.1262  -0.5500
    -0.5419  -0.4761  -0.4651   0.3390   0.4417   0.5804   0.8862   1.1840
     1.2525   1.3999   1.5123   2.0827

          k = 0.0833 0.0000 0.0000 ( 31951 PWs)   bands (ev):

   -21.8186 -20.8466 -20.3684 -20.3626 -19.5583 -19.4115 -19.3964 -18.9430
   -17.5898 -17.5865 -16.8240 -16.8217 -16.6414 -16.3005 -15.8165 -15.5610
   -14.9099 -14.6537 -14.6530 -14.1613 -13.2400 -13.2382 -12.4348 -12.1950
   -11.7416 -11.5199 -11.5179 -11.3170 -10.2065  -9.9705  -9.9682  -9.8940
    -9.7109  -9.4814  -9.3044  -9.1861  -9.1846  -9.0092  -9.0080  -8.8786
    -8.7773  -8.7341  -8.6115  -8.2451  -8.1235  -8.0754  -8.0742  -7.6876
    -7.3085  -7.1009  -6.8928  -6.7523  -6.7243  -6.4744  -6.1247  -5.8961
    -5.3398  -5.2898  -4.7838  -4.4582  -4.3249  -3.6537  -3.3935  -1.4519
    -1.1225  -0.7839  -0.1772  -0.0922   0.1587   0.5985   0.6533   0.8604
     1.5258   1.7476   2.1238   2.2054

          k = 0.0833 0.0722 0.0000 ( 31951 PWs)   bands (ev):

   -21.7269 -20.9975 -20.7560 -20.0376 -19.5876 -19.5136 -18.8557 -18.6246
   -18.1671 -17.5059 -16.9196 -16.8166 -16.8063 -16.6296 -16.2641 -15.1707
   -14.6810 -14.5814 -14.0653 -13.9454 -13.2394 -13.2376 -12.2513 -12.2369
   -12.0202 -11.8049 -11.5410 -11.3103 -10.7561 -10.3708  -9.7950  -9.7543
    -9.7217  -9.7015  -9.3895  -9.3038  -9.1838  -9.0007  -8.8233  -8.7968
    -8.6735  -8.6651  -8.5327  -8.5013  -8.1847  -7.8392  -7.5473  -7.3708
    -7.3556  -6.9984  -6.7673  -6.7500  -6.4606  -6.4181  -6.1737  -6.0731
    -5.7934  -5.2163  -4.8369  -4.4728  -4.4017  -3.9729  -3.7576  -1.1001
    -0.7842  -0.6323  -0.1555   0.2758   0.3658   0.6055   0.8129   0.9888
     1.4628   1.6212   1.6714   1.9307

          k = 0.0833-0.1443 0.0000 ( 31876 PWs)   bands (ev):

   -21.4564 -21.4488 -20.4884 -20.4822 -19.5436 -18.6031 -18.6029 -18.5887
   -18.5848 -17.6926 -17.6854 -16.8261 -16.8109 -16.3368 -16.3294 -15.2843
   -15.2794 -13.2499 -13.2488 -13.1211 -13.1094 -13.1009 -13.0975 -13.0326
   -13.0274 -11.4203 -11.4199 -11.3003 -10.7293 -10.7274  -9.9521  -9.9467
    -9.7132  -9.5027  -9.4751  -9.3046  -9.1182  -9.1126  -9.1124  -9.1030
    -8.7686  -8.7004  -8.3297  -8.2842  -7.6196  -7.6063  -7.3001  -7.2802
    -7.1381  -6.7734  -6.7662  -6.6369  -6.6331  -6.2428  -6.1903  -6.1624
    -6.1328  -5.2282  -5.1691  -4.5979  -4.4471  -4.0888  -4.0049  -0.9772
    -0.9555   0.2524   0.3336   0.4795   0.5579   0.6153   1.0733   1.3167
     1.3217   1.3667   1.4100   1.4155

          k =-0.1667 0.0000 0.0000 ( 31854 PWs)   bands (ev):

   -21.4546 -21.4506 -20.0154 -20.0095 -20.0075 -20.0009 -19.5299 -17.6918
   -17.6865 -16.8610 -16.8323 -16.7406 -16.7239 -16.3434 -16.3287 -15.6687
   -15.6684 -15.2774 -15.2727 -13.2498 -13.2230 -13.0386 -13.0331 -11.4147
   -11.4133 -11.2765 -10.7435 -10.7225 -10.3044 -10.3030 -10.2853 -10.2802
    -9.7207  -9.4957  -9.4872  -9.3046  -8.9713  -8.9665  -8.9499  -8.9368
    -8.9335  -8.9194  -8.7537  -8.7123  -7.9469  -7.7428  -7.7426  -7.7391
    -7.3128  -7.2868  -6.9469  -6.7515  -6.7200  -6.6275  -6.6210  -5.3049
    -5.1219  -4.8903  -4.8776  -4.5759  -4.2617  -4.1764  -3.9682  -0.9932
    -0.9262  -0.7868  -0.7170   0.2683   0.4219   0.5745   0.6150   0.7352
     0.8769   1.3572   1.4028   2.2048

          k =-0.1667 0.0722 0.0000 ( 31908 PWs)   bands (ev):

   -21.3634 -21.3594 -20.6371 -20.6342 -19.5460 -19.2100 -19.1977 -17.6100
   -17.6045 -17.1795 -17.1787 -17.0251 -17.0107 -16.8108 -16.7997 -15.2672
   -15.2667 -14.3319 -14.3271 -13.5936 -13.5891 -13.2400 -13.2206 -11.5391
   -11.5360 -11.2738 -10.8459 -10.8435 -10.6403 -10.6194  -9.7738  -9.7583
    -9.7188  -9.3994  -9.3827  -9.3109  -9.2776  -9.2731  -9.2369  -9.2364
    -8.7845  -8.7751  -8.4660  -8.4425  -7.9315  -7.9229  -7.6716  -7.6513
    -7.2136  -6.8832  -6.7876  -6.7011  -6.6661  -6.6609  -6.6511  -5.2755
    -5.0933  -4.9713  -4.9294  -4.7934  -4.7337  -4.2589  -4.2491  -0.6356
    -0.5743  -0.3458  -0.2758   0.1233   0.2371   0.6537   0.6728   0.6961
     0.9905   1.4841   1.5150   1.7025

          k =-0.1667-0.1443 0.0000 ( 31784 PWs)   bands (ev):

   -21.0942 -21.0896 -21.0860 -21.0833 -19.5416 -18.2615 -18.2501 -18.2488
   -18.2483 -17.3748 -17.3696 -17.3687 -17.3623 -16.8196 -16.8081 -14.4846
   -14.4787 -14.4729 -14.4698 -13.2437 -13.2265 -12.9446 -12.9368 -12.9358
   -12.9295 -11.2670 -10.3270 -10.3234 -10.3097 -10.2993  -9.9604  -9.9541
    -9.9337  -9.9331  -9.7224  -9.3062  -9.1417  -9.1259  -9.0892  -9.0116
    -8.6739  -8.6269  -8.4144  -8.4035  -8.3979  -8.3882  -7.1161  -7.0841
    -7.0825  -7.0735  -7.0674  -6.7662  -6.7355  -5.9079  -5.8034  -5.7575
    -5.7228  -5.2261  -4.9938  -4.9740  -4.9500  -4.3607  -4.2661  -0.3403
    -0.2035  -0.1698  -0.1494   0.4591   0.6466   0.7749   1.0227   1.0542
     1.0585   1.1734   1.2572   1.3898

          k =-0.0833 0.0722 0.0000 ( 31951 PWs)   bands (ev):

   -21.7269 -20.9975 -20.7560 -20.0376 -19.5877 -19.5136 -18.8557 -18.6246
   -18.1671 -17.5060 -16.9201 -16.8173 -16.8048 -16.6298 -16.2640 -15.1709
   -14.6811 -14.5815 -14.0651 -13.9455 -13.2387 -13.2377 -12.2516 -12.2371
   -12.0201 -11.8050 -11.5412 -11.3099 -10.7561 -10.3708  -9.7948  -9.7541
    -9.7219  -9.7030  -9.3892  -9.3037  -9.1837  -9.0000  -8.8239  -8.7978
    -8.6763  -8.6612  -8.5304  -8.5006  -8.1849  -7.8340  -7.5473  -7.3709
    -7.3623  -7.0096  -6.7853  -6.7370  -6.4605  -6.4002  -6.1718  -6.0731
    -5.7928  -5.2206  -4.8382  -4.4713  -4.4023  -3.9729  -3.7570  -1.1015
    -0.7840  -0.6329  -0.1600   0.2701   0.3700   0.6105   0.8183   0.9885
     1.4481   1.5968   1.6623   1.9290

     the Fermi energy is    -2.3932 ev

!    total energy              =    -351.25454944 Ry
     Harris-Foulkes estimate   =    -351.25454934 Ry
     estimated scf accuracy    <       0.00000006 Ry

     The total energy is the sum of the following terms:

     one-electron contribution =   -4802.28801627 Ry
     hartree contribution      =    2421.03979779 Ry
     xc contribution           =    -112.32943924 Ry
     ewald contribution        =    2142.32588584 Ry
     smearing contrib. (-TS)   =      -0.00277757 Ry

     convergence has been achieved in   6 iterations

     Forces acting on atoms (cartesian axes, Ry/au):

     atom    1 type  1   force =     0.00009588   -0.00142573   -0.00000789
     atom    2 type  1   force =    -0.00013582   -0.00057426    0.00266115
     atom    3 type  1   force =     0.00013582    0.00057426    0.00266115
     atom    4 type  1   force =     0.00002138    0.00130452   -0.00009057
     atom    5 type  1   force =    -0.00296738   -0.00257644   -0.00245103
     atom    6 type  1   force =     0.00011495   -0.00024209   -0.00018838
     atom    7 type  1   force =    -0.00011495    0.00024209   -0.00018838
     atom    8 type  1   force =    -0.00288682    0.00271237   -0.00254109
     atom    9 type  1   force =     0.00003536    0.00196085   -0.00326161
     atom   10 type  1   force =     0.00038550    0.00074028   -0.00010098
     atom   11 type  1   force =     0.00043099   -0.00072017    0.00009505
     atom   12 type  1   force =    -0.00003536   -0.00196085   -0.00326161
     atom   13 type  1   force =    -0.00001043    0.00006466   -0.00898858
     atom   14 type  1   force =     0.00078727    0.00118931   -0.00882090
     atom   15 type  1   force =     0.00073260   -0.00120259   -0.00884303
     atom   16 type  1   force =     0.00001043   -0.00006466   -0.00898858
     atom   17 type  1   force =    -0.00002138   -0.00130452   -0.00009057
     atom   18 type  1   force =    -0.00043099    0.00072017    0.00009505
     atom   19 type  1   force =    -0.00038550   -0.00074028   -0.00010098
     atom   20 type  1   force =    -0.00009588    0.00142573   -0.00000789
     atom   21 type  1   force =     0.00288682   -0.00271237   -0.00254109
     atom   22 type  1   force =    -0.00073260    0.00120259   -0.00884303
     atom   23 type  1   force =    -0.00078727   -0.00118931   -0.00882090
     atom   24 type  1   force =     0.00296738    0.00257644   -0.00245103
     atom   25 type  1   force =    -0.00425688    0.00317820    0.00939585
     atom   26 type  1   force =     0.00208808    0.00463861    0.00937547
     atom   27 type  1   force =     0.00426154    0.00123692    0.00942006
     atom   28 type  1   force =     0.00425688   -0.00317820    0.00939585
     atom   29 type  1   force =    -0.00208808   -0.00463861    0.00937547
     atom   30 type  1   force =    -0.00426154   -0.00123692    0.00942006
     atom   31 type  2   force =     0.00184022   -0.00207501    0.00142430
     atom   32 type  2   force =    -0.00082499   -0.00238569    0.00142402
     atom   33 type  2   force =    -0.00257241   -0.00075811    0.00149817
     atom   34 type  2   force =    -0.00184022    0.00207501    0.00142430
     atom   35 type  2   force =     0.00082499    0.00238569    0.00142402
     atom   36 type  2   force =     0.00257241    0.00075811    0.00149817

     Total force =     0.036821     Total SCF correction =     0.000268

     number of scf cycles    =   4
     number of bfgs steps    =   3

     energy   old            =    -351.2517884722 Ry
     energy   new            =    -351.2545494389 Ry

     CASE: energy  _new < energy  _old

     new trust radius        =       0.0345345316 bohr
     new conv_thr            =       0.0000009420 Ry


ATOMIC_POSITIONS (angstrom)
C        1.230890149  -0.000623085   0.001161386
C       -0.000020716   0.709490816   0.005584869
C        0.000020716   2.131072184   0.005584869
C        1.231037736   2.841146084   0.001926225
C        1.232757457   4.263279546  -0.009486639
C        0.000010682   4.971624293   0.002832516
C       -0.000010682   6.390628707   0.002832516
C        1.232547099   7.098746340  -0.009737742
C        3.689874508  -0.003961130  -0.011043702
C        2.460249882   0.709340881   0.002227119
C        2.460344581   2.131194819   0.001673086
C        3.690125492   2.844524130  -0.011043702
C        3.690109945   4.261267214  -0.043068446
C        2.460778368   4.971178404  -0.042414986
C        2.460678485   6.390853754  -0.042429717
C        3.689890055   7.100985786  -0.043068446
C        6.148962264  -0.000583084   0.001926225
C        4.919655419   0.709368181   0.001673086
C        4.919750118   2.131222119   0.002227119
C        6.149109851   2.841186085   0.001161386
C        6.147452901   4.263506660  -0.009737742
C        4.919321515   4.971399246  -0.042429717
C        4.919221632   6.391074596  -0.042414986
C        6.147242543   7.098973454  -0.009486639
C        4.676008369   4.695068637   3.045600041
C        3.328791486   4.334859224   3.045589384
C        2.342709738   5.320704112   3.045670473
C        2.703991631   6.667184363   3.045600041
C        4.051208514   7.027393776   3.045589384
C        5.037290262   6.041548888   3.045670473
H        5.441736260   3.928344166   3.001875027
H        3.048242842   3.288135450   3.001865028
H        1.296651135   5.039167218   3.002176077
H        1.938263740   7.433909834   3.001875027
H        4.331757158   8.074118550   3.001865028
H        6.083348865   6.323086782   3.002176077



     Writing output data file slabCalc_example1.save/
     NEW-OLD atomic charge density approx. for the potential

     negative rho (up, down):  2.092E-04 0.000E+00

     total cpu time spent up to now is     1760.1 secs

     Self-consistent Calculation

     iteration #  1     ecut=    32.00 Ry     beta= 0.50
     Davidson diagonalization with overlap
     ethr =  1.00E-06,  avg # of iterations =  4.2

     negative rho (up, down):  2.082E-04 0.000E+00

     total cpu time spent up to now is     1862.0 secs

     total energy              =    -351.25751422 Ry
     Harris-Foulkes estimate   =    -351.25862135 Ry
     estimated scf accuracy    <       0.00251922 Ry

     iteration #  2     ecut=    32.00 Ry     beta= 0.50
     Davidson diagonalization with overlap
     ethr =  2.00E-06,  avg # of iterations =  4.2

     negative rho (up, down):  2.100E-04 0.000E+00

     total cpu time spent up to now is     1921.1 secs

     total energy              =    -351.25793160 Ry
     Harris-Foulkes estimate   =    -351.25800338 Ry
     estimated scf accuracy    <       0.00030458 Ry

     iteration #  3     ecut=    32.00 Ry     beta= 0.50
     Davidson diagonalization with overlap
     ethr =  2.42E-07,  avg # of iterations =  3.4

     negative rho (up, down):  2.100E-04 0.000E+00

     total cpu time spent up to now is     1977.9 secs

     total energy              =    -351.25797627 Ry
     Harris-Foulkes estimate   =    -351.25798643 Ry
     estimated scf accuracy    <       0.00007045 Ry

     iteration #  4     ecut=    32.00 Ry     beta= 0.50
     Davidson diagonalization with overlap
     ethr =  5.59E-08,  avg # of iterations =  2.0

     negative rho (up, down):  2.137E-04 0.000E+00

     total cpu time spent up to now is     2032.9 secs

     total energy              =    -351.25798669 Ry
     Harris-Foulkes estimate   =    -351.25799023 Ry
     estimated scf accuracy    <       0.00001759 Ry

     iteration #  5     ecut=    32.00 Ry     beta= 0.50
     Davidson diagonalization with overlap
     ethr =  1.40E-08,  avg # of iterations =  2.1

     negative rho (up, down):  2.106E-04 0.000E+00

     total cpu time spent up to now is     2086.3 secs

     total energy              =    -351.25799026 Ry
     Harris-Foulkes estimate   =    -351.25799080 Ry
     estimated scf accuracy    <       0.00000275 Ry

     iteration #  6     ecut=    32.00 Ry     beta= 0.50
     Davidson diagonalization with overlap
     ethr =  2.18E-09,  avg # of iterations =  2.1

     negative rho (up, down):  2.079E-04 0.000E+00

     total cpu time spent up to now is     2139.2 secs

     End of self-consistent calculation

          k = 0.0000 0.0000 0.0000 ( 31971 PWs)   bands (ev):

   -21.9485 -20.4937 -20.4918 -20.0169 -20.0147 -19.5519 -18.6078 -18.6060
   -18.6002 -18.5975 -16.8417 -16.8173 -16.7411 -15.6730 -15.1044 -15.1040
   -15.0885 -15.0849 -13.2644 -13.2428 -13.1252 -13.1196 -13.1142 -13.1075
   -12.9833 -12.9778 -11.3573 -10.3147 -10.2976 -10.0360  -9.9553  -9.9510
    -9.6961  -9.3097  -9.1256  -9.1204  -9.1184  -9.1141  -8.9793  -8.9447
    -8.9321  -8.7592  -8.6612  -8.3996  -8.2449  -7.8449  -7.7425  -7.6263
    -7.6212  -7.0850  -6.7918  -6.7617  -6.2499  -6.2211  -6.1613  -6.1150
    -5.6539  -5.6496  -4.8965  -4.4767  -4.3848  -2.4317  -2.4302  -2.3749
    -2.3715  -0.7562  -0.0351   0.4442   0.4684   0.6798   1.2996   1.3239
     1.3707   1.4570   1.5863   1.9961

          k = 0.0000 0.0722 0.0000 ( 31929 PWs)   bands (ev):

   -21.8567 -21.1261 -19.9273 -19.9263 -19.6932 -19.5481 -19.2173 -19.2045
   -17.8408 -17.8347 -17.6236 -16.8177 -16.8160 -15.9686 -15.9655 -14.6823
   -14.5702 -14.5635 -13.7251 -13.7158 -13.2559 -13.2343 -12.4611 -12.4565
   -12.4004 -12.3886 -11.5876 -11.3494 -10.7733 -10.7583 -10.1617 -10.1605
    -9.9328  -9.6974  -9.3090  -9.1274  -8.8885  -8.6697  -8.6600  -8.6333
    -8.6180  -8.4594  -8.4495  -8.3795  -8.1903  -7.7904  -7.6455  -7.4475
    -7.1255  -6.9799  -6.9244  -6.7858  -6.7032  -6.6956  -6.0145  -5.8475
    -5.4416  -5.4117  -5.3047  -4.4744  -4.4504  -3.4002  -3.3925  -1.4336
    -1.4273  -0.1426   0.1056   0.2674   0.3318   0.6420   0.6902   0.8101
     1.3224   1.7973   1.8508   2.2169

          k = 0.0000-0.1443 0.0000 ( 31940 PWs)   bands (ev):

   -21.5852 -21.5787 -19.6838 -19.6644 -19.6555 -19.6549 -19.5236 -18.7212
   -18.7139 -16.9590 -16.9524 -16.9420 -16.9384 -16.8026 -16.7959 -14.1902
   -14.1897 -14.1845 -14.1783 -13.2672 -13.2349 -13.1863 -13.1802 -11.5924
   -11.5797 -11.5753 -11.5703 -11.3762 -11.3620 -11.3575 -11.3540 -11.3257
    -9.6998  -9.6318  -9.6246  -9.3086  -8.6940  -8.6559  -8.6221  -8.6177
    -8.3274  -8.3172  -8.3130  -8.3039  -7.6322  -7.3665  -7.3651  -7.3410
    -7.0151  -6.9873  -6.9643  -6.7657  -6.7196  -6.3659  -6.3468  -6.3350
    -6.2698  -4.7533  -4.7413  -4.4308  -4.4250  -4.1868  -4.1591  -0.5476
    -0.5407  -0.4848  -0.4762   0.3407   0.4413   0.5770   0.8871   1.1778
     1.2530   1.3901   1.4911   2.0788

          k = 0.0833 0.0000 0.0000 ( 31951 PWs)   bands (ev):

   -21.8261 -20.8541 -20.3742 -20.3719 -19.5672 -19.4209 -19.4058 -18.9510
   -17.5960 -17.5959 -16.8273 -16.8256 -16.6503 -16.3094 -15.8235 -15.5720
   -14.9213 -14.6614 -14.6598 -14.1676 -13.2420 -13.2379 -12.4447 -12.2013
   -11.7476 -11.5276 -11.5267 -11.3215 -10.2181  -9.9817  -9.9808  -9.8952
    -9.7023  -9.4877  -9.3102  -9.1948  -9.1941  -9.0190  -9.0181  -8.8811
    -8.7825  -8.7362  -8.6102  -8.2437  -8.1275  -8.0810  -8.0802  -7.7009
    -7.3136  -7.1064  -6.9095  -6.7569  -6.7210  -6.4863  -6.1293  -5.9099
    -5.3373  -5.2923  -4.7800  -4.4751  -4.3492  -3.6691  -3.4038  -1.4618
    -1.1269  -0.7898  -0.1716  -0.0938   0.1612   0.5855   0.6419   0.8549
     1.5284   1.7484   2.1166   2.2012

          k = 0.0833 0.0722 0.0000 ( 31951 PWs)   bands (ev):

[...]
C        0.000022679   4.970943312  -0.192497808
C       -0.000022679   6.391309688  -0.192497808
C        1.230611397   7.100696998  -0.194891298
C        3.690003792  -0.000880670  -0.192697504
C        2.460433039   0.709793627  -0.181223779
C        2.460401725   2.130760265  -0.181224331
C        3.689996208   2.841443670  -0.192697504
C        3.690006413   4.261359452  -0.214283966
C        2.460545303   4.971115245  -0.215321676
C        2.460540685   6.391131406  -0.215363114
C        3.689993587   7.100893548  -0.214283966
C        6.149843069  -0.000303316  -0.180112644
C        4.919598275   0.709802735  -0.181224331
C        4.919566961   2.130769373  -0.181223779
C        6.149839400   2.840864927  -0.180238509
C        6.149388603   4.261556002  -0.194891298
C        4.919459315   4.971121594  -0.215363114
C        4.919454697   6.391137755  -0.215321676
C        6.149416303   7.100720266  -0.194778983
C        4.676285375   4.694143014   3.390322564
C        3.328045115   4.334250574   3.390442356
C        2.341655208   5.320927530   3.390557488
C        2.703714625   6.668109986   3.390322564
C        4.051954885   7.028002426   3.390442356
C        5.038344792   6.041325470   3.390557488
H        5.443506198   3.924354225   3.380649171
H        3.045927018   3.284692060   3.381088580
H        1.292041428   5.038954389   3.381516397
H        1.936493802   7.437899775   3.380649171
H        4.334072982   8.077561940   3.381088580
H        6.087958572   6.323299611   3.381516397



     Writing output data file slabCalc_example1.save/
     NEW-OLD atomic charge density approx. for the potential

     negative rho (up, down):  2.013E-04 0.000E+00

     total cpu time spent up to now is    15277.2 secs

     Self-consistent Calculation

     iteration #  1     ecut=    32.00 Ry     beta= 0.50
     Davidson diagonalization with overlap
     ethr =  1.00E-06,  avg # of iterations =  2.0

     Threshold (ethr) on eigenvalues was too large:
     Diagonalizing with lowered threshold

     Davidson diagonalization with overlap
     ethr =  6.72E-10,  avg # of iterations =  3.0

     negative rho (up, down):  2.013E-04 0.000E+00

     total cpu time spent up to now is    15387.7 secs

     total energy              =    -351.28176254 Ry
     Harris-Foulkes estimate   =    -351.28176313 Ry
     estimated scf accuracy    <       0.00000127 Ry

     iteration #  2     ecut=    32.00 Ry     beta= 0.50
     Davidson diagonalization with overlap
     ethr =  1.01E-09,  avg # of iterations =  2.0

     negative rho (up, down):  2.013E-04 0.000E+00

     total cpu time spent up to now is    15447.8 secs

     total energy              =    -351.28176274 Ry
     Harris-Foulkes estimate   =    -351.28176282 Ry
     estimated scf accuracy    <       0.00000021 Ry

     iteration #  3     ecut=    32.00 Ry     beta= 0.50
     Davidson diagonalization with overlap
     ethr =  1.66E-10,  avg # of iterations =  2.0

     negative rho (up, down):  2.014E-04 0.000E+00

     total cpu time spent up to now is    15505.6 secs

     total energy              =    -351.28176277 Ry
     Harris-Foulkes estimate   =    -351.28176279 Ry
     estimated scf accuracy    <       0.00000004 Ry

     iteration #  4     ecut=    32.00 Ry     beta= 0.50
     Davidson diagonalization with overlap
     ethr =  3.57E-11,  avg # of iterations =  2.0

     negative rho (up, down):  2.014E-04 0.000E+00

     total cpu time spent up to now is    15560.4 secs

     total energy              =    -351.28176277 Ry
     Harris-Foulkes estimate   =    -351.28176278 Ry
     estimated scf accuracy    <       0.00000001 Ry

     iteration #  5     ecut=    32.00 Ry     beta= 0.50
     Davidson diagonalization with overlap
     ethr =  8.55E-12,  avg # of iterations =  2.0

     negative rho (up, down):  2.014E-04 0.000E+00

     total cpu time spent up to now is    15613.6 secs

     End of self-consistent calculation

          k = 0.0000 0.0000 0.0000 ( 31971 PWs)   bands (ev):

   -21.8600 -20.4040 -20.4040 -19.9272 -19.9251 -19.5685 -18.5188 -18.5178
   -18.5157 -18.5137 -16.8280 -16.8272 -16.6792 -15.5877 -15.0123 -15.0107
   -15.0102 -15.0093 -13.2644 -13.2419 -13.0359 -13.0356 -13.0354 -13.0351
   -12.8959 -12.8959 -11.3349 -10.2224 -10.2221  -9.9410  -9.8714  -9.8680
    -9.6890  -9.3318  -9.0416  -9.0398  -9.0337  -9.0326  -8.8964  -8.8566
    -8.8559  -8.7188  -8.6538  -8.2307  -8.1970  -7.6900  -7.6440  -7.5437
    -7.5430  -7.2781  -6.8127  -6.7733  -6.0976  -6.0937  -6.0862  -6.0797
    -5.5736  -5.5686  -4.7477  -4.6104  -4.5531  -2.3138  -2.3117  -2.3082
    -2.3054  -0.6194  -0.1413   0.3725   0.4530   0.6689   1.4146   1.4186
     1.4293   1.4591   1.4691   1.8725

          k = 0.0000 0.0722 0.0000 ( 31929 PWs)   bands (ev):

   -21.7682 -21.0375 -19.8379 -19.8356 -19.6013 -19.5655 -19.1270 -19.1258
   -17.7515 -17.7498 -17.5362 -16.8277 -16.8270 -15.8836 -15.8819 -14.5974
   -14.4819 -14.4816 -13.6350 -13.6346 -13.2623 -13.2417 -12.3750 -12.3742
   -12.3106 -12.3101 -11.5040 -11.3300 -10.6821 -10.6818 -10.0786 -10.0772
    -9.8296  -9.6903  -9.3318  -8.9746  -8.8057  -8.7087  -8.6527  -8.5456
    -8.5448  -8.3737  -8.3721  -8.2968  -8.1076  -7.6072  -7.5444  -7.3571
    -7.2109  -6.8977  -6.8114  -6.8016  -6.7333  -6.7229  -5.9333  -5.7646
    -5.2833  -5.2804  -5.2094  -4.6072  -4.6049  -3.3239  -3.3233  -1.3277
    -1.3272  -0.0108   0.0298   0.3834   0.3945   0.5482   0.5959   0.7983
     1.2164   1.6761   1.8296   2.2130

          k = 0.0000-0.1443 0.0000 ( 31940 PWs)   bands (ev):

   -21.5005 -21.4864 -19.5862 -19.5760 -19.5757 -19.5603 -19.5460 -18.6345
   -18.6285 -16.8595 -16.8587 -16.8571 -16.8503 -16.8222 -16.8204 -14.1054
   -14.1045 -14.0965 -14.0953 -13.2612 -13.2420 -13.1053 -13.1050 -11.4992
   -11.4982 -11.4925 -11.4910 -11.3259 -11.2776 -11.2758 -11.2744 -11.2710
    -9.6918  -9.5118  -9.4983  -9.3317  -8.7297  -8.6517  -8.5433  -8.5325
    -8.2367  -8.2364  -8.2315  -8.2292  -7.4549  -7.2576  -7.2532  -7.2400
    -7.1197  -6.9263  -6.9092  -6.8025  -6.7624  -6.2648  -6.2528  -6.2309
    -6.2222  -4.6732  -4.6591  -4.3353  -4.3317  -4.2895  -4.2797  -0.4034
    -0.3959  -0.3910  -0.3868   0.2326   0.3878   0.4715   0.7993   1.1706
     1.2245   1.4889   1.5202   1.9848

          k = 0.0833 0.0000 0.0000 ( 31951 PWs)   bands (ev):

   -21.7376 -20.7656 -20.2842 -20.2842 -19.5683 -19.3334 -19.3322 -18.8653
   -17.5086 -17.5083 -16.8354 -16.8269 -16.5749 -16.2258 -15.7392 -15.4868
   -14.8363 -14.5755 -14.5752 -14.0826 -13.2480 -13.2451 -12.3603 -12.1170
   -11.6638 -11.4432 -11.4429 -11.3035 -10.1343  -9.8983  -9.8969  -9.7912
    -9.6960  -9.4047  -9.3325  -9.1120  -9.1117  -8.9365  -8.9361  -8.7601
    -8.7104  -8.6988  -8.6108  -8.0903  -8.0594  -7.9983  -7.9981  -7.6184
    -7.3327  -6.9797  -6.9402  -6.7815  -6.7639  -6.4270  -6.0467  -5.8288
    -5.1834  -5.1702  -4.6745  -4.6151  -4.4726  -3.6081  -3.3331  -1.3568
    -1.0217  -0.6592  -0.0002   0.0272   0.0559   0.4427   0.4924   0.8424
     1.4112   1.6290   2.0754   2.1830

          k = 0.0833 0.0722 0.0000 ( 31951 PWs)   bands (ev):

   -21.6460 -20.9165 -20.6750 -19.9553 -19.5684 -19.4793 -18.7777 -18.5464
   -18.0882 -17.4260 -16.8411 -16.8294 -16.8163 -16.5599 -16.1896 -15.0924
   -14.6028 -14.5065 -13.9902 -13.8673 -13.2473 -13.2443 -12.1745 -12.1624
   -11.9421 -11.7303 -11.4680 -11.2987 -10.6801 -10.2953  -9.6979  -9.6885
    -9.6756  -9.6410  -9.3328  -9.3120  -9.1075  -8.8452  -8.7424  -8.7250
    -8.6941  -8.5932  -8.5174  -8.4310  -8.1129  -7.7074  -7.4766  -7.3300
    -7.2922  -7.1121  -6.7773  -6.7707  -6.3862  -6.3418  -6.0797  -6.0017
    -5.6870  -5.0743  -4.7061  -4.6122  -4.5202  -3.9709  -3.7238  -0.9955
    -0.6750  -0.5086  -0.0144   0.1816   0.4063   0.4601   0.7566   0.9698
     1.3643   1.5193   1.7345   1.8864

          k = 0.0833-0.1443 0.0000 ( 31876 PWs)   bands (ev):

   -21.3787 -21.3646 -20.4110 -20.3970 -19.5674 -18.5237 -18.5199 -18.5134
   -18.5092 -17.6126 -17.6068 -16.8355 -16.8276 -16.2633 -16.2569 -15.2035
   -15.2027 -13.2477 -13.2434 -13.0395 -13.0349 -13.0346 -13.0317 -12.9616
   -12.9568 -11.3452 -11.3379 -11.2933 -10.6563 -10.6529  -9.8755  -9.8699
    -9.6986  -9.3667  -9.3560  -9.3327  -9.0436  -9.0387  -9.0337  -9.0325
    -8.7362  -8.7253  -8.2144  -8.2126  -7.5449  -7.5382  -7.3097  -7.2241
    -7.2138  -6.7777  -6.7683  -6.5630  -6.5571  -6.0971  -6.0921  -6.0881
    -6.0805  -5.0743  -5.0628  -4.6368  -4.5999  -4.0748  -4.0536  -0.8516
    -0.8498   0.3709   0.3967   0.4049   0.5216   0.5565   0.9909   1.3444
     1.3910   1.4143   1.4175   1.4436

          k =-0.1667 0.0000 0.0000 ( 31854 PWs)   bands (ev):

   -21.3764 -21.3670 -19.9304 -19.9304 -19.9219 -19.9215 -19.5651 -17.6098
   -17.6097 -16.8446 -16.8267 -16.6789 -16.6775 -16.2655 -16.2568 -15.5897
   -15.5894 -15.2058 -15.1964 -13.2500 -13.2308 -12.9611 -12.9608 -11.3399
   -11.3394 -11.2693 -10.6617 -10.6501 -10.2213 -10.2211 -10.2192 -10.2190
    -9.7067  -9.3671  -9.3564  -9.3330  -8.8956  -8.8954  -8.8622  -8.8617
    -8.8562  -8.8559  -8.7994  -8.7019  -7.7218  -7.6534  -7.6513  -7.6392
    -7.2389  -7.2279  -7.2157  -6.7746  -6.7490  -6.5601  -6.5528  -5.0900
    -5.0473  -4.7641  -4.7289  -4.5963  -4.5259  -4.0867  -4.0468  -0.8481
    -0.8478  -0.6290  -0.6130   0.3866   0.4741   0.4798   0.5111   0.5646
     0.7611   1.3432   1.3723   2.1151

          k =-0.1667 0.0722 0.0000 ( 31908 PWs)   bands (ev):

   -21.2851 -21.2758 -20.5591 -20.5499 -19.5664 -19.1326 -19.1230 -17.5278
   -17.5275 -17.1015 -17.0933 -16.9330 -16.9316 -16.8408 -16.8253 -15.1887
   -15.1885 -14.2590 -14.2503 -13.5123 -13.5120 -13.2499 -13.2290 -11.4678
   -11.4614 -11.2651 -10.7716 -10.7714 -10.5584 -10.5469  -9.7083  -9.6915
    -9.6814  -9.3336  -9.2610  -9.2503  -9.2055  -9.2017  -9.1650  -9.1646
    -8.8010  -8.7207  -8.3847  -8.3827  -7.8538  -7.8526  -7.5899  -7.5809
    -7.3164  -6.7946  -6.7669  -6.7171  -6.6945  -6.5937  -6.5904  -5.0463
    -5.0014  -4.8079  -4.7886  -4.7082  -4.6482  -4.5343  -4.4931  -0.4718
    -0.4552  -0.1994  -0.1929   0.2771   0.3309   0.4790   0.5206   0.5554
     0.8782   1.4635   1.4890   1.6042

          k =-0.1667-0.1443 0.0000 ( 31784 PWs)   bands (ev):

   -21.0174 -21.0113 -21.0065 -20.9940 -19.5660 -18.1808 -18.1753 -18.1723
   -18.1657 -17.2978 -17.2922 -17.2844 -17.2791 -16.8424 -16.8269 -14.4050
   -14.3993 -14.3974 -14.3917 -13.2505 -13.2274 -12.8690 -12.8689 -12.8615
   -12.8600 -11.2603 -10.2473 -10.2388 -10.2387 -10.2250  -9.8817  -9.8777
    -9.8663  -9.8620  -9.7091  -9.3338  -8.9642  -8.9480  -8.9310  -8.9293
    -8.7597  -8.6970  -8.3304  -8.3285  -8.3260  -8.3207  -7.3070  -7.0079
    -7.0076  -7.0043  -7.0013  -6.7787  -6.7398  -5.7005  -5.6975  -5.6830
    -5.6746  -4.9617  -4.8926  -4.8920  -4.8745  -4.5899  -4.5508  -0.1044
    -0.0788  -0.0758  -0.0619   0.4389   0.5000   0.6627   1.0194   1.1327
     1.1410   1.1542   1.1891   1.2952

          k =-0.0833 0.0722 0.0000 ( 31951 PWs)   bands (ev):

   -21.6460 -20.9165 -20.6750 -19.9553 -19.5684 -19.4793 -18.7777 -18.5464
   -18.0882 -17.4260 -16.8413 -16.8294 -16.8160 -16.5599 -16.1897 -15.0926
   -14.6026 -14.5065 -13.9903 -13.8672 -13.2473 -13.2443 -12.1746 -12.1622
   -11.9420 -11.7304 -11.4681 -11.2988 -10.6803 -10.2956  -9.6975  -9.6889
    -9.6754  -9.6409  -9.3328  -9.3121  -9.1073  -8.8448  -8.7433  -8.7254
    -8.6938  -8.5931  -8.5166  -8.4308  -8.1126  -7.7063  -7.4768  -7.3303
    -7.2924  -7.1152  -6.7754  -6.7725  -6.3865  -6.3392  -6.0791  -6.0012
    -5.6874  -5.0750  -4.7072  -4.6114  -4.5196  -3.9709  -3.7238  -0.9955
    -0.6748  -0.5092  -0.0150   0.1782   0.4062   0.4631   0.7570   0.9696
     1.3461   1.4928   1.7336   1.8893

     the Fermi energy is    -2.3098 ev

!    total energy              =    -351.28176278 Ry
     Harris-Foulkes estimate   =    -351.28176278 Ry
     estimated scf accuracy    <          1.2E-09 Ry

     The total energy is the sum of the following terms:

     one-electron contribution =   -4556.68075525 Ry
     hartree contribution      =    2298.42116728 Ry
     xc contribution           =    -112.23183634 Ry
     ewald contribution        =    2019.21248211 Ry
     smearing contrib. (-TS)   =      -0.00282057 Ry

     convergence has been achieved in   5 iterations

     Forces acting on atoms (cartesian axes, Ry/au):

     atom    1 type  1   force =     0.00005871    0.00001660    0.00003656
     atom    2 type  1   force =    -0.00004720   -0.00005243   -0.00001201
     atom    3 type  1   force =     0.00004720    0.00005243   -0.00001201
     atom    4 type  1   force =     0.00001280   -0.00005569    0.00003275
     atom    5 type  1   force =     0.00003310    0.00002823    0.00001568
     atom    6 type  1   force =    -0.00008630    0.00008755   -0.00006630
     atom    7 type  1   force =     0.00008630   -0.00008755   -0.00006630
     atom    8 type  1   force =    -0.00008872    0.00000954    0.00002501
     atom    9 type  1   force =     0.00001623   -0.00007817    0.00000398
     atom   10 type  1   force =    -0.00004186   -0.00001261   -0.00001473
     atom   11 type  1   force =     0.00002094    0.00003643   -0.00002046
     atom   12 type  1   force =    -0.00001623    0.00007817    0.00000398
     atom   13 type  1   force =    -0.00002201    0.00009190   -0.00004436
     atom   14 type  1   force =     0.00000006   -0.00001500    0.00000778
     atom   15 type  1   force =     0.00001358   -0.00001606    0.00000870
     atom   16 type  1   force =     0.00002201   -0.00009190   -0.00004436
     atom   17 type  1   force =    -0.00001280    0.00005569    0.00003275
     atom   18 type  1   force =    -0.00002094   -0.00003643   -0.00002046
     atom   19 type  1   force =     0.00004186    0.00001261   -0.00001473
     atom   20 type  1   force =    -0.00005871   -0.00001660    0.00003656
     atom   21 type  1   force =     0.00008872   -0.00000954    0.00002501
     atom   22 type  1   force =    -0.00001358    0.00001606    0.00000870
     atom   23 type  1   force =    -0.00000006    0.00001500    0.00000778
     atom   24 type  1   force =    -0.00003310   -0.00002823    0.00001568
     atom   25 type  1   force =     0.00002922   -0.00004683    0.00000675
     atom   26 type  1   force =     0.00003945   -0.00000154    0.00000066
     atom   27 type  1   force =     0.00001880   -0.00004577    0.00000694
     atom   28 type  1   force =    -0.00002922    0.00004683    0.00000675
     atom   29 type  1   force =    -0.00003945    0.00000154    0.00000066
     atom   30 type  1   force =    -0.00001880    0.00004577    0.00000694
     atom   31 type  2   force =     0.00003215    0.00000766    0.00000708
     atom   32 type  2   force =     0.00005795   -0.00001806   -0.00001229
     atom   33 type  2   force =     0.00007385   -0.00002571    0.00001828
     atom   34 type  2   force =    -0.00003215   -0.00000766    0.00000708
     atom   35 type  2   force =    -0.00005795    0.00001806   -0.00001229
     atom   36 type  2   force =    -0.00007385    0.00002571    0.00001828

     Total force =     0.000414     Total SCF correction =     0.000086
     SCF correction compared to forces is large: reduce conv_thr to get better values

     bfgs converged in  39 scf cycles and  38 bfgs steps
     (criteria: energy <  1.0E-05 Ry, force <  1.0E-04 Ry/Bohr)

     End of BFGS Geometry Optimization

     Final energy   =    -351.2817627763 Ry
Begin final coordinates

ATOMIC_POSITIONS (angstrom)
C        1.230160600  -0.000301927  -0.180238509
C        0.000023495   0.709842660  -0.171942944
C       -0.000023495   2.130720340  -0.171942944
C        1.230156931   2.840866316  -0.180112644
C        1.230583697   4.261532734  -0.194778983
C        0.000022679   4.970943312  -0.192497808
C       -0.000022679   6.391309688  -0.192497808
C        1.230611397   7.100696998  -0.194891298
C        3.690003792  -0.000880670  -0.192697504
C        2.460433039   0.709793627  -0.181223779
C        2.460401725   2.130760265  -0.181224331
C        3.689996208   2.841443670  -0.192697504
C        3.690006413   4.261359452  -0.214283966
C        2.460545303   4.971115245  -0.215321676
C        2.460540685   6.391131406  -0.215363114
C        3.689993587   7.100893548  -0.214283966
C        6.149843069  -0.000303316  -0.180112644
C        4.919598275   0.709802735  -0.181224331
C        4.919566961   2.130769373  -0.181223779
C        6.149839400   2.840864927  -0.180238509
C        6.149388603   4.261556002  -0.194891298
C        4.919459315   4.971121594  -0.215363114
C        4.919454697   6.391137755  -0.215321676
C        6.149416303   7.100720266  -0.194778983
C        4.676285375   4.694143014   3.390322564
C        3.328045115   4.334250574   3.390442356
C        2.341655208   5.320927530   3.390557488
C        2.703714625   6.668109986   3.390322564
C        4.051954885   7.028002426   3.390442356
C        5.038344792   6.041325470   3.390557488
H        5.443506198   3.924354225   3.380649171
H        3.045927018   3.284692060   3.381088580
H        1.292041428   5.038954389   3.381516397
H        1.936493802   7.437899775   3.380649171
H        4.334072982   8.077561940   3.381088580
H        6.087958572   6.323299611   3.381516397
End final coordinates



     Writing output data file slabCalc_example1.save/

     init_run     :     42.85s CPU     43.39s WALL (       1 calls)
     electrons    :  14631.93s CPU  14766.27s WALL (      39 calls)
     update_pot   :    155.32s CPU    158.89s WALL (      38 calls)
     forces       :    624.34s CPU    628.94s WALL (      39 calls)

     Called by init_run:
     wfcinit      :     35.90s CPU     36.11s WALL (       1 calls)
     potinit      :      4.16s CPU      4.38s WALL (       1 calls)
     hinit0       :      1.15s CPU      1.17s WALL (       1 calls)

     Called by electrons:
     c_bands      :  12416.38s CPU  12502.28s WALL (     239 calls)
     sum_band     :   1600.10s CPU   1619.73s WALL (     239 calls)
     v_of_rho     :    526.69s CPU    549.63s WALL (     272 calls)
     newd         :    168.59s CPU    177.50s WALL (     272 calls)
     mix_rho      :     14.25s CPU     14.64s WALL (     239 calls)

     Called by c_bands:
     init_us_2    :     77.89s CPU     78.15s WALL (    5180 calls)
     cegterg      :  12273.10s CPU  12357.97s WALL (    2390 calls)

     Called by sum_band:
     sum_band:bec :      0.95s CPU      0.96s WALL (    2390 calls)
     addusdens    :    120.69s CPU    129.01s WALL (     239 calls)

     Called by *egterg:
     h_psi        :   7114.54s CPU   7176.64s WALL (    8859 calls)
     s_psi        :   2652.91s CPU   2659.36s WALL (    8859 calls)
     g_psi        :      5.55s CPU      5.59s WALL (    6459 calls)
     cdiaghg      :    227.37s CPU    227.97s WALL (    8409 calls)

     Called by h_psi:
     h_psi:pot    :   7104.85s CPU   7159.98s WALL (    8859 calls)
     h_psi:calbec :   2997.50s CPU   3005.52s WALL (    8859 calls)
     vloc_psi     :   1242.75s CPU   1283.03s WALL (    8859 calls)
     add_vuspsi   :   2864.52s CPU   2871.39s WALL (    8859 calls)

     General routines
     calbec       :   4607.74s CPU   4619.99s WALL (   12809 calls)
     fft          :    355.12s CPU    367.86s WALL (   17180 calls)
     ffts         :      1.59s CPU      1.65s WALL (     511 calls)
     fftw         :   1394.00s CPU   1439.62s WALL ( 1127430 calls)
     interpolate  :      7.85s CPU      8.11s WALL (     272 calls)

     Parallel routines
     fft_scatt_xy :    159.01s CPU    164.35s WALL ( 1145121 calls)
     fft_scatt_yz :    299.99s CPU    322.14s WALL ( 1145121 calls)

     PWSCF        :      4h18m CPU      4h20m WALL


   This run was terminated on:  14:27:27  24Oct2020            

=------------------------------------------------------------------------------=
   JOB DONE.
=------------------------------------------------------------------------------=
